[Molden Format]
[Molpro variables]
_NUMVAR=  675.0000000000000    
_PATCHLEVEL=  675.0000000000000    
_EV2006= 0.3674930886769165E-01
_EV= 0.3674932534394180E-01
_KJOULE= 0.3808798324128737E-03
_KJOULE/MOL= 0.3808798324128737E-03
_CM= 0.4556335267302901E-05
_CM-1= 0.4556335267302901E-05
_KCAL= 0.1593601117815568E-02
_KCAL/MOL= 0.1593601117815568E-02
_KELVIN2006= 0.3166828861084835E-05
_KELVIN= 0.3166814820820034E-05
_HERTZ2006= 0.1519829850815779E-15
_HERTZ= 0.1519829846011223E-15
_HZ2006= 0.1519829850815779E-15
_HZ= 0.1519829846011223E-15
_TOA2006= 0.5291772490000000    
_TOA= 0.5291772090000000    
_TOANG2006= 0.5291772490000000    
_TOANG= 0.5291772090000000    
_TORAD= 0.1745329251994330E-01
_TOCM=  219474.6306700000    
_TODEBYE=  2.541580000000000    
_TOEV2006=  27.21139610000000    
_TOEV=  27.21138390000000    
_TOHERTZ2006=  6579683899900000.    
_TOHERTZ=  6579683920700000.    
_TOHZ2006=  6579683899900000.    
_TOHZ=  6579683920700000.    
_TOK2006=  315773.3000000000    
_TOK=  315774.7000000000    
_TOKCAL=  627.5096000000000    
_TOKELVIN2006=  315773.3000000000    
_TOKELVIN=  315774.7000000000    
_TOKJ=  2625.500000000000    
_TOKJOULE=  2625.500000000000    
_ANG2006=  1.889725988578923    
_ANG=  1.889726131421507    
_ANGSTROM2006=  1.889725988578923    
_ANGSTROM=  1.889726131421507    
_IGNORE_UNDEF=  2.000000000000000    
_STRICTCHECK=  0.000000000000000    
_SEW_ONEEL=  0.000000000000000    
_CPPDONE=FALSE
_DKROLL_DONE=  0.000000000000000    
_FOCKDONE=TRUE
_GRADONE=FALSE
_HESSDONE=FALSE
_INTDONE=TRUE
_SCFDONE=TRUE
_MODUL_CUDA=FALSE
_MODUL_SLATER=FALSE
_MODUL_MRCC=FALSE
_MRCC_EXEC=
_FITC_AO_SAVED=FALSE
_FITC_MO_SAVED=FALSE
_SHARED_FS=TRUE
_LSTYP=SEWARD
_INTYP=INTS
_GEOMTYP=ZMAT
_GRADTYP=ALASKA
_DIRECT=FALSE
_DKROLL=FALSE
_DKHO=FALSE
_DKHP=FALSE
_SYNCM=  0.000000000000000    
_DFTNAME=  0.000000000000000    
_DFTFUNC=  0.000000000000000    
_BASIS=SVP
_BASISSETS=
_ZSIGNX=
_ZSIGNY=
_ZSIGNZ=
_ZCENTRE=
_ZSYMEL=
_ZPLANE=
_ZUNIT=
_ZORIENT=  1.000000000000000    
_CHARGE=  1.000000000000000    
_SCFCHARGE=  1.000000000000000    
_MCCHARGE=  1.000000000000000    
_CICHARGE=  1.000000000000000    
_CCCHARGE=  1.000000000000000    
_NELEC=  10.00000000000000    
!NELEC=  10.00000000000000    
_SCFNELEC=  10.00000000000000    
_MCNELEC=  10.00000000000000    
_CINELEC=  10.00000000000000    
_CCNELEC=  10.00000000000000    
_SPIN=  10.00000000000000    
!SPIN=  0.000000000000000    
_SCFSPIN=  0.000000000000000    
_MCSPIN=  0.000000000000000    
_CISPIN=  0.000000000000000    
_CCSPIN=  0.000000000000000    
_STATE=  0.000000000000000    
_SCFSTATE=  0.000000000000000    
_MCSTATE=  0.000000000000000    
_CISTATE=  0.000000000000000    
_SYMMETRY=  0.000000000000000    
!SYMMETRY=  0.000000000000000    
_SCFSYMMETRY=  0.000000000000000    
_MCSYMMETRY=  0.000000000000000    
_CISYMMETRY=  0.000000000000000    
_CCSYMMETRY=  0.000000000000000    
_SCFSYMM=  0.000000000000000    
_MCSYMM=  0.000000000000000    
_CISYMM=  0.000000000000000    
_CCSYMM=  0.000000000000000    
_SCFSYM=  0.000000000000000    
_MCSYM=  0.000000000000000    
_CISYM=  0.000000000000000    
_CCSYM=  0.000000000000000    
_WEIGHT=  0.000000000000000    
_MCWEIGHT=  0.000000000000000    
_LQUANT=  0.000000000000000    
_MCLQUANT=  0.000000000000000    
_OPTCONV=  0.000000000000000    
_QSDSTEP=  0.000000000000000    
_QSDIRC=  0.000000000000000    
_PROGRAM=HF-SCF
_CPUSTEP= 0.3000000000000000E-01
_SYSSTEP=  0.000000000000000    
_WALLSTEP= 0.5000000000000000E-01
!PERT= 0.5000000000000000E-01
!DFMP2= 0.5000000000000000E-01
!DFSCF=  0.000000000000000    
!DFHFENERG=  0.000000000000000    
!SCSGRD=  0.000000000000000    
_ATCHARGE=  0.000000000000000    
_BASINP=  610.0000000000000    
_CARTESIAN=TRUE
_CFIT=TRUE
_CFIT_FRED=TRUE
_CFIT_FRED_THR=TRUE
_CHII2=TRUE
_CHIRS=TRUE
_COEFF=TRUE
_CPU2IDX_CFIT=TRUE
_CPU3IDX_CFIT=TRUE
_CPUASMBL_CFIT=TRUE
_CPUBLAS1=TRUE
_CPUBLAS2=TRUE
_CPUBLAS3=TRUE
_CPUINT_DTRAF=TRUE
_CPUSOLVE_CFIT=TRUE
_CPUTOT= 0.2100000000000000    
_CPUTR1_CFIT= 0.2100000000000000    
_CPUTR2_CFIT= 0.2100000000000000    
_CPUINV_CFIT= 0.2100000000000000    
_CPUFIT_CFIT= 0.2100000000000000    
_CPUTRANS_CFIT= 0.2100000000000000    
_CPUSCREEN_CFIT= 0.2100000000000000    
_CPUTRANS_DTRAF= 0.2100000000000000    
_CPUTRA_DTRAF= 0.2100000000000000    
_CPUTRIPL= 0.2100000000000000    
_SYSTRIPL= 0.2100000000000000    
_WALLTRIPL= 0.2100000000000000    
_CPUCCSD= 0.2100000000000000    
_SYSCCSD= 0.2100000000000000    
_WALLCCSD= 0.2100000000000000    
_CPUSORT= 0.1999999999999999E-01
_SYSSORT= 0.1000000000000000E-01
_WALLSORT= 0.1999998092651367E-01
_CPUF12= 0.1999998092651367E-01
_SYSF12= 0.1999998092651367E-01
_WALLF12= 0.1999998092651367E-01
_CPUF12B= 0.1999998092651367E-01
_SYSF12B= 0.1999998092651367E-01
_WALLF12B= 0.1999998092651367E-01
_CPUTRANS= 0.1999998092651367E-01
_SYSTRANS= 0.1999998092651367E-01
_WALLTRANS= 0.1999998092651367E-01
_DALTON= 0.1999998092651367E-01
_DARW= 0.1999998092651367E-01
_DECAY= 0.1999998092651367E-01
_DELE_CFIT= 0.1999998092651367E-01
_DELG_CFIT= 0.1999998092651367E-01
_DELTA= 0.1999998092651367E-01
_DFTEXFAC=  1.000000000000000    
_DFTFAC=  1.000000000000000    
_DFTFUN=  1.000000000000000    
_DFTFUNS=  1.000000000000000    
_DMEX=  1.000000000000000    
_DMEY=  1.000000000000000    
_DMEZ=  1.000000000000000    
_DMNX=  1.000000000000000    
_DMNY=  1.000000000000000    
_DMNZ=  1.000000000000000    
_DMSCF=  1.000000000000000    
_DMSCF_Efield=  1.000000000000000    
_DMSCF_I=  1.000000000000000    
_DMSCF_J=  1.000000000000000    
_DMSCF_K=  1.000000000000000    
_DMSCF_N1=  1.000000000000000    
_DMSCF_N2=  1.000000000000000    
_DMSCF_NUC=  1.000000000000000    
_DMSCF_T=  1.000000000000000    
_DMSCF_V=  1.000000000000000    
_DMX= 0.1058958503108443E-05
_DMY= 0.6018594405077238E-06
_DMZ=-0.3021956113077352E-05
_DMZCOR=-0.3021956113077352E-05
_DM_RHO1=-0.3021956113077352E-05
_DM_RVAL=-0.3021956113077352E-05
_DUMMYATOMS=-0.3021956113077352E-05
_FREQUENCIES=-0.3021956113077352E-05
_EDISP=-0.3021956113077352E-05
_EEDISP=-0.3021956113077352E-05
_EINTRA=-0.3021956113077352E-05
_EINTRA_R12=-0.3021956113077352E-05
_EINTER_R12=-0.3021956113077352E-05
_EIONIC=-0.3021956113077352E-05
_EMP2=-0.3021956113077352E-05
_EMP2_SING=-0.3021956113077352E-05
_EMP2_TRIP=-0.3021956113077352E-05
_EMP2_SINGLES=-0.3021956113077352E-05
_EMP2_SINGLES_D=-0.3021956113077352E-05
_EMP2_SCS=-0.3021956113077352E-05
_EMP2_STRONG=-0.3021956113077352E-05
_EMP2_CLOSE=-0.3021956113077352E-05
_EMP2_WEAK=-0.3021956113077352E-05
_EMP2_DIST=-0.3021956113077352E-05
_ECSING=-0.3021956113077352E-05
_ECTRIP=-0.3021956113077352E-05
_ECSINGLES=-0.3021956113077352E-05
_EF12=-0.3021956113077352E-05
_EF12_SING=-0.3021956113077352E-05
_EF12_TRIP=-0.3021956113077352E-05
_ECSING_F12=-0.3021956113077352E-05
_ECTRIP_F12=-0.3021956113077352E-05
_EF12_RHFRELAX=-0.3021956113077352E-05
_EF12_RHFRELAX_C=-0.3021956113077352E-05
_EF12_CONVSUPPRS=-0.3021956113077352E-05
_EF12_CONVSUPPRT=-0.3021956113077352E-05
_EF12_SINGLES=-0.3021956113077352E-05
_EF12_SINGLES_C=-0.3021956113077352E-05
_EF12_SCS=-0.3021956113077352E-05
_EF12_STRONG=-0.3021956113077352E-05
_EF12_CLOSE=-0.3021956113077352E-05
_EF12_WEAK=-0.3021956113077352E-05
_EF12_DIST=-0.3021956113077352E-05
_EF12S=-0.3021956113077352E-05
_EF12S_SING=-0.3021956113077352E-05
_EF12S_TRIP=-0.3021956113077352E-05
_EF12S_SCS=-0.3021956113077352E-05
_EF12S_STRONG=-0.3021956113077352E-05
_EF12S_CLOSE=-0.3021956113077352E-05
_EF12S_WEAK=-0.3021956113077352E-05
_EF12S_DIST=-0.3021956113077352E-05
_EF12D=-0.3021956113077352E-05
_EF12D_SING=-0.3021956113077352E-05
_EF12D_TRIP=-0.3021956113077352E-05
_EF12D_SCS=-0.3021956113077352E-05
_EF12D_STRONG=-0.3021956113077352E-05
_EF12D_CLOSE=-0.3021956113077352E-05
_EF12D_WEAK=-0.3021956113077352E-05
_EF12D_DIST=-0.3021956113077352E-05
_EF12F=-0.3021956113077352E-05
_EF12F_SING=-0.3021956113077352E-05
_EF12F_TRIP=-0.3021956113077352E-05
_EF12F_SCS=-0.3021956113077352E-05
_EF12F_STRONG=-0.3021956113077352E-05
_EF12F_CLOSE=-0.3021956113077352E-05
_EF12F_WEAK=-0.3021956113077352E-05
_EF12F_DIST=-0.3021956113077352E-05
_EMP2R12_2AD=-0.3021956113077352E-05
_EMP2R12_2A=-0.3021956113077352E-05
_EMP2R12_2AP=-0.3021956113077352E-05
_EMP2R12_2SAD=-0.3021956113077352E-05
_EMP2R12_2SA=-0.3021956113077352E-05
_EMP2R12_2SAP=-0.3021956113077352E-05
_EMP2R12_2B=-0.3021956113077352E-05
_EMP2_R12=-0.3021956113077352E-05
_EMP2_R12_A=-0.3021956113077352E-05
_EMP2_R12_AP=-0.3021956113077352E-05
_EMP2_R12_AD=-0.3021956113077352E-05
_EMP2_R12_2A=-0.3021956113077352E-05
_EMP2_R12_2SA=-0.3021956113077352E-05
_EMP2_R12_2SAP=-0.3021956113077352E-05
_EMP2_R12_2SAD=-0.3021956113077352E-05
_EMP2_R12_2AP=-0.3021956113077352E-05
_EMP2_R12_DIAG=-0.3021956113077352E-05
_EMP2_R12_STRONG=-0.3021956113077352E-05
_EMP2_R12_CLOSE=-0.3021956113077352E-05
_EMP2_R12_WEAK=-0.3021956113077352E-05
_EMP2_R12_DIST=-0.3021956113077352E-05
_EMP2_R12_SING=-0.3021956113077352E-05
_EMP2_R12_TRIP=-0.3021956113077352E-05
_EMP2_R12_SCS=-0.3021956113077352E-05
_EMP2R=-0.3021956113077352E-05
_EMP3=-0.3021956113077352E-05
_EMP3R=-0.3021956113077352E-05
_EMP4=-0.3021956113077352E-05
_ENERGC=-0.3021956113077352E-05
_ENERGCL=-0.3021956113077352E-05
_ENERG_CC=-0.3021956113077352E-05
_ENERG_CV=-0.3021956113077352E-05
_ENERG_VV=-0.3021956113077352E-05
_ENERGD=-0.3021956113077352E-05
_ENERGD0=-0.3021956113077352E-05
_ENERGD1=-0.3021956113077352E-05
_ENERGD2=-0.3021956113077352E-05
_ENERGD3=-0.3021956113077352E-05
_ENERGD4=-0.3021956113077352E-05
_ENERGP=-0.3021956113077352E-05
_ENERGP0=-0.3021956113077352E-05
_ENERGP1=-0.3021956113077352E-05
_ENERGP2=-0.3021956113077352E-05
_ENERGP3=-0.3021956113077352E-05
_ENERGP4=-0.3021956113077352E-05
_ENERGR=-0.3021956113077352E-05
_ENERGRR=-0.3021956113077352E-05
_ENERGS=-0.3021956113077352E-05
_ENERGT=-0.3021956113077352E-05
_ENERGU=-0.3021956113077352E-05
_ENERGW=-0.3021956113077352E-05
_ENERGY= -40.17030978221913    
_ENERGY_MP= -40.17030978221913    
_ECBS= -40.17030978221913    
_ECBSD= -40.17030978221913    
_ENUC=  13.68652296103505    
_EPDIST=  13.68652296103505    
_EPDIST_R12=  13.68652296103505    
_EPSUM=  13.68652296103505    
_EPSUM_R12=  13.68652296103505    
_EPS1= -11.21276700305167    
_EPS2= -11.21276700305167    
_EPS3= -11.21276700305167    
_EPS4= -11.21276700305167    
_EPS5= -11.21276700305167    
_EPS6= -11.21276700305167    
_EPS7= -11.21276700305167    
_EPS8= -11.21276700305167    
_EREL= -11.21276700305167    
_FLOPBLAS1= -11.21276700305167    
_FLOPBLAS2= -11.21276700305167    
_FLOPBLAS3= -11.21276700305167    
_FLOPDGM= -11.21276700305167    
_FLOPDGV= -11.21276700305167    
_FLOPMXM= -11.21276700305167    
_FLOPMXV= -11.21276700305167    
_FREQSTEP= -11.21276700305167    
!RS2GRSTATE= -11.21276700305167    
!RS2GRSYM= -11.21276700305167    
_GRADENERG= -11.21276700305167    
_GRADEXFAC=  9999.000000000000    
_GRADMETHOD=  1.000000000000000    
_GRADRECORD=  1.000000000000000    
_VIRIAL=  1.000000000000000    
_GRADX=  1.000000000000000    
_GRADY=  1.000000000000000    
_GRADZ=  1.000000000000000    
_GRADVAR=  1.000000000000000    
_GRID=  1.000000000000000    
_GRID_FREEZE=  1.000000000000000    
!GRID_FREEZE= -1.000000000000000    
!GRIDREC= -1.000000000000000    
_GRID_WEIGHT_CUT= -1.000000000000000    
_GRID_BLOCKSIZE= -1.000000000000000    
_GRID_SPARSITY= -1.000000000000000    
_GRID_RMAX= -1.000000000000000    
_GTOTAL= -1.000000000000000    
_HDIA= -1.000000000000000    
_HDIACI= -1.000000000000000    
_HEAT= -1.000000000000000    
_HTOTAL= -1.000000000000000    
_INCR_CORR= -1.000000000000000    
_INCR_COUNT= -1.000000000000000    
_INCR_READY= -1.000000000000000    
_ISCHI= -1.000000000000000    
_ITERATIONS=  8.000000000000000    
_KFIT=  8.000000000000000    
_LASTNELEC=  10.00000000000000    
_LASTSPIN=  0.000000000000000    
_LASTSYM=  1.000000000000000    
_LL=  1.000000000000000    
_MASSV=  1.000000000000000    
_MIN_ITER=  1.000000000000000    
_MIXANG=  1.000000000000000    
_MIXANGCI=  1.000000000000000    
_MPP_PROG=  0.000000000000000    
_MSENERGY=  0.000000000000000    
_NACME=  0.000000000000000    
_NBAS_CFIT=  0.000000000000000    
_NEWREC=  0.000000000000000    
_NGRID=  0.000000000000000    
_NPROC_MPP=  1.000000000000000    
_NPROC_SMP=  1.000000000000000    
_NUMSTEP=  0.000000000000000    
_OPNUC=  0.000000000000000    
_OPTCONVMX=  0.000000000000000    
_OPTCONVRMS=  0.000000000000000    
_OPTGRAD=  0.000000000000000    
_OPTGRADMX=  0.000000000000000    
_OPTGRADRMS=  0.000000000000000    
_OPTRMSMAX=  0.000000000000000    
_OPTSTEP=  0.000000000000000    
_ORBITAL=  2100.200000000000    
_PAOINT_CFIT=  2100.200000000000    
_PENALTY=  2100.200000000000    
_PH1INT_CFIT=  2100.200000000000    
_PH1VEC_CFIT=  2100.200000000000    
_PH2INT_CFIT=  2100.200000000000    
_PHASE=  2100.200000000000    
_PI=  3.141592653589793    
_PMOINT_CFIT=  3.141592653589793    
_PMOVEC_CFIT=  3.141592653589793    
_POISSON_ECORR=  3.141592653589793    
_POISSON_ERROR=  3.141592653589793    
_POLXX=  3.141592653589793    
_POLXY=  3.141592653589793    
_POLXZ=  3.141592653589793    
_POLYY=  3.141592653589793    
_POLYZ=  3.141592653589793    
_POLZZ=  3.141592653589793    
_POLYX=  3.141592653589793    
_POLZX=  3.141592653589793    
_POLZY=  3.141592653589793    
_POVINT_CFIT=  3.141592653589793    
_ROOT=  3.141592653589793    
_RPDIST=  3.141592653589793    
_RPMIN=  3.141592653589793    
_RPMAX=  3.141592653589793    
_EPCON=  3.141592653589793    
_ECDIAG=  3.141592653589793    
_EPDIAG=  3.141592653589793    
!MCACT=  3.141592653589793    
!MCCLOSED=  3.141592653589793    
!MCFREEZE=  3.141592653589793    
!MCMS2=  3.141592653589793    
!MCNEL=  3.141592653589793    
!MCNSTSYM=  3.141592653589793    
!MCSTATE=  3.141592653589793    
!MCSYM=  3.141592653589793    
!MCWEIGHT=  3.141592653589793    
_SEIG_MIN= 0.1302290400136352E-01
_SEWPROP=TRUE
_SMAT=TRUE
_SMATCI=TRUE
_SSQUARED=TRUE
_STATUS=  1.000000000000000    
_SYSBLAS1=  1.000000000000000    
_SYSBLAS2=  1.000000000000000    
_SYSBLAS3=  1.000000000000000    
_SYSTEM_RC=  1.000000000000000    
_SYSTOT= 0.3000000000000000E-01
_T1DIAG= 0.3000000000000000E-01
_D1DIAG= 0.3000000000000000E-01
_TASK= 0.3000000000000000E-01
_TROV= 0.3000000000000000E-01
_HMAT= 0.3000000000000000E-01
_UMAT= 0.3000000000000000E-01
_UMATCI= 0.3000000000000000E-01
_VERSION=  2010001.000000000    
_WALLBLAS1=  2010001.000000000    
_WALLBLAS2=  2010001.000000000    
_WALLBLAS3=  2010001.000000000    
_WALLTOT= 0.3500000000000000    
_ZPE= 0.3500000000000000    
!DFBASIS_COUL= 0.3500000000000000    
!DFBASIS_EXCH= 0.3500000000000000    
!DFBASIS_MP2= 0.3500000000000000    
!DFBASIS_F12K= 0.3500000000000000    
!DFBASIS_CCSD= 0.3500000000000000    
!RIBASIS_MP2= 0.3500000000000000    
!RIBASIS_EXCH= 0.3500000000000000    
_DATE=07-Aug-12
_LASTORB=RHF
_MACHINE=Darwin-11.4.2/Shanes-MacBook-Pro.local(x86_64) 64 bit serial version
_METHODC=
_METHODT=
_OUTPUT=/Users/smparker/Research/methane/methane.xml
_PGROUP=C1
_SEMI=
_TIME=01:38:29
_ANSATZ=
_LIBMOL=/Users/smparker/programs/Molpro/bin/../lib/
_VDIAG=
_UDIAG=
!AOINTADDSC=
_TRANSFORM_FORCE=
_SOLVE_ITER=
_VSCF_FREQ=
_VMCSCF_FREQ=
_VCI_FREQ=
_VMP2_FREQ=
_VSCF_INTENS=
_VMCSCF_INTENS=
_VCI_INTENS=
_VMP2_INTENS=
!SURFREC=  0.000000000000000    
!POLYREC=  0.000000000000000    
!DIPREC=  0.000000000000000    
!VSCFREC=  0.000000000000000    
!VCIREC=  0.000000000000000    
!PVCIREC=  0.000000000000000    
!VMP2REC=  0.000000000000000    
!VMCSCFREC=  0.000000000000000    
!GAREC=  0.000000000000000    
!SCFORB=  21002.00000000000    
!MCORB=  21002.00000000000    
!CIOCC=  21002.00000000000    
!CICORE=  21002.00000000000    
!CICLOS=  21002.00000000000    
!UNO_OCC=  21002.00000000000    
!UNO_CLOSED=  21002.00000000000    
!CINSTSYM=  21002.00000000000    
!CIISTSYM=  21002.00000000000    
!CIISTMS2=  21002.00000000000    
!CIISTNEL=  21002.00000000000    
!CIMS2=  21002.00000000000    
!NEWMOL= -1.000000000000000    
!NEWSYM= -1.000000000000000    
!NEWORIENT= -1.000000000000000    
_SLFILES=slscratch
_NGSSTO=  9.000000000000000    
_SIN=SIN
_COS=COS
_TAN=TAN
_ACOS=ACOS
_ASIN=ASIN
_ATAN=ATAN
_COSH=COSH
_SINH=SINH
_TANH=TANH
_ABS=ABS
_MOD=MOD
_ERF=ERF
_REFC=REFC
_ERFC=ERFC
_HYPOT=HYPOT
_J0=J0
_J1=J1
_JN=JN
_GAMMA=GAMMA
_LGAMMA=LGAMMA
_Y0=Y0
_Y1=Y1
_YN=YN
_EXP=EXP
_LOG=LOG
_LOG10=LOG10
_SQRT=SQRT
_INT=INT
_NINT=NINT
_MAX=MAX
_MIN=MIN
_COSMO=  0.000000000000000    
_COSMOIT=  0.000000000000000    
_COSMOES=  0.000000000000000    
_COSMOEDS=  0.000000000000000    
_COSMOEC=  0.000000000000000    
_COSMOEDCORR=  0.000000000000000    
_FEPSI=  1.000000000000000    
_SL_IsMM=  0.000000000000000    
_SL_NSYM=  0.000000000000000    
_SL_System_BitSw=  0.000000000000000    
_SL_Unique_atoms=  0.000000000000000    
_SL_Last_energy=  0.000000000000000    
_SL_GRAD=  0.000000000000000    
_SL_MAXUPD_Hess=  5.000000000000000    
_SL_N_PRINT_COD=  5.000000000000000    
_SL_PRINT_CODES=  0.000000000000000    
_SL_BasType=  0.000000000000000    
_SL_Energy_Pred=  0.000000000000000    
_SL_New_Coords=  0.000000000000000    
_SL_Total_Nuclea=  0.000000000000000    
_SL_Highest_Mltp=  0.000000000000000    
_SL_Ref_Geom=  0.000000000000000    
_CONFIG=  0.000000000000000    
_OCC=  0.000000000000000    
_CORE=  0.000000000000000    
_CLOSED=  0.000000000000000    
_SCFOCC=  0.000000000000000    
_SCFCLOSED=  0.000000000000000    
_SCFCORE=  0.000000000000000    
_MCOCC=  0.000000000000000    
_MCCLOSED=  0.000000000000000    
_MCFROZEN=  0.000000000000000    
_MCCORE=  0.000000000000000    
_CIOCC=  0.000000000000000    
_CICLOSED=  0.000000000000000    
_CICORE=  0.000000000000000    
_CCOCC=  0.000000000000000    
_CCCLOSED=  0.000000000000000    
_CCCORE=  0.000000000000000    
_SRXC=  0.000000000000000    
_SRC=  0.000000000000000    
_SRX=  0.000000000000000    
_SRH=  0.000000000000000    
_E_EXCHANGE=  0.000000000000000    
!LATTICE= -1.000000000000000    
!NEWLATTICE=  0.000000000000000    
!LATGRAD_VAR=FALSE
!SEW_LATTICE=  1.000000000000000    
_LATGRADX=  1.000000000000000    
_LATGRADY=  1.000000000000000    
_LATGRADZ=  1.000000000000000    
!SCALTABINIT=  1.000000000000000    
!LOCAL=  0.000000000000000    
!SAVEOCC=  0.000000000000000    
!SAVEDOM= -1.000000000000000    
!RESTDOM= -1.000000000000000    
!SAVEDOM_HF= -1.000000000000000    
!RESTDOM_HF= -1.000000000000000    
!HESSREC=  0.000000000000000    
!FREQREC=  0.000000000000000    
!NMODREC=  0.000000000000000    
!GTASKS=  0.000000000000000    
!HTASKS=  0.000000000000000    
!THRCHG= 0.1000000000000000    
!DEBUG= -1.000000000000000    
!CFIT_CPHF=  0.000000000000000    
!RDOMAUX_CPHF=  3.000000000000000    
!THRAO_CPHF= 0.1000000000000000E-09
!THRMO_CPHF= 0.1000000000000000E-08
!THROV_CPHF= 0.1000000000000000E-11
!THRSW_CPHF= 0.1000000000000000E-09
!THRPROD_CPHF= 0.1000000000000000E-08
!THRAOPR_CPHF= 0.1000000000000000E-11
!CFIT_SCFGRD=  0.000000000000000    
!RDOMAUX_SCFGRD=  5.000000000000000    
!THRAO_SCFGRD= 0.1000000000000000E-09
!THRMO_SCFGRD= 0.1000000000000000E-08
!THROV_SCFGRD= 0.1000000000000000E-11
!THRSW_SCFGRD= 0.1000000000000000E-09
!THRPROD_SCFGRD= 0.1000000000000000E-08
!THRAOPR_SCFGRD= 0.1000000000000000E-11
!LOCFIT_SCF=  0.000000000000000    
!LOCFIT_MP2= -1.000000000000000    
_RIDOM=  0.000000000000000    
_FCI_METHOD=  0.000000000000000    
!CC2_METHOD=  0.000000000000000    
_BASIS2006=FALSE
_SVDDEL= -1.000000000000000    
_SVDDELA= -1.000000000000000    
_SVDDELP= -1.000000000000000    
_SVDDELF= -1.000000000000000    
_SVDDELS= -1.000000000000000    
_SVDDEL_ABS= -1.000000000000000    
_SVDDELA_ABS= -1.000000000000000    
_SVDDELP_ABS= -1.000000000000000    
_SVDDELF_ABS= -1.000000000000000    
_SVDDELS_ABS= -1.000000000000000    
_MAXBASIS=  0.000000000000000    
!OPT_CONICAL=  0.000000000000000    
!CLEARSP_JGRID=  0.000000000000000    
_SHLDTENSOR=  0.000000000000000    
_OMEGAF_S=  0.000000000000000    
_OMEGAF_T=  0.000000000000000    
_RE=  0.000000000000000    
_BE=  0.000000000000000    
_AE=  0.000000000000000    
_WE=  0.000000000000000    
_WEXE=  0.000000000000000    
_WEYE=  0.000000000000000    
_METHOD=  0.000000000000000    
_C0=  0.000000000000000    
_C0R=  0.000000000000000    
GX1= -1.591700000000000    
GY1=  1.172830000000000    
GZ1=  0.000000000000000    
GX2=-0.5217000000000001    
GY2=  1.172830000000000    
GZ2=  0.000000000000000    
GX3= -1.948360000000000    
GY3= 0.6248100000000003    
GZ3=-0.8469700000000000    
GX4= -1.948360000000000    
GY4=  2.180340000000000    
GZ4=-0.5112000000000000E-01
GX5= -1.948370000000000    
GY5= 0.7133400000000000    
GZ5= 0.8980900000000005    
[Atoms] Angs
C     1    6        -1.5917000000        1.1728300000        0.0000000000
H     2    1        -0.5217000000        1.1728300000        0.0000000000
H     3    1        -1.9483600000        0.6248100000       -0.8469700000
H     4    1        -1.9483600000        2.1803400000       -0.0511200000
H     5    1        -1.9483700000        0.7133400000        0.8980900000
[GTO]
  1 0
 s    5  1.00
  0.1238401694D+04  0.5517365048D-02
  0.1862900499D+03  0.4108882856D-01
  0.4225117635D+02  0.1822538213D+00
  0.1167655793D+02  0.4682845944D+00
  0.3593050648D+01  0.4457581734D+00
 s    1  1.00
  0.4024514736D+00  0.1000000000D+01
 s    1  1.00
  0.1309018267D+00  0.1000000000D+01
 p    3  1.00
  0.9468097062D+01  0.5688833201D-01
  0.2010354514D+01  0.3129405934D+00
  0.5477100471D+00  0.7606501651D+00
 p    1  1.00
  0.1526861379D+00  0.1000000000D+01
 d    1  1.00
  0.8000000000D+00  0.1000000000D+01
  
  2 0
 s    3  1.00
  0.1301070100D+02  0.3348548481D-01
  0.1962257200D+01  0.2347218709D+00
  0.4445379600D+00  0.8137702853D+00
 s    1  1.00
  0.1219496200D+00  0.1000000000D+01
 p    1  1.00
  0.8000000000D+00  0.1000000000D+01
  
  3 0
 s    3  1.00
  0.1301070100D+02  0.3348548481D-01
  0.1962257200D+01  0.2347218709D+00
  0.4445379600D+00  0.8137702853D+00
 s    1  1.00
  0.1219496200D+00  0.1000000000D+01
 p    1  1.00
  0.8000000000D+00  0.1000000000D+01
  
  4 0
 s    3  1.00
  0.1301070100D+02  0.3348548481D-01
  0.1962257200D+01  0.2347218709D+00
  0.4445379600D+00  0.8137702853D+00
 s    1  1.00
  0.1219496200D+00  0.1000000000D+01
 p    1  1.00
  0.8000000000D+00  0.1000000000D+01
  
  5 0
 s    3  1.00
  0.1301070100D+02  0.3348548481D-01
  0.1962257200D+01  0.2347218709D+00
  0.4445379600D+00  0.8137702853D+00
 s    1  1.00
  0.1219496200D+00  0.1000000000D+01
 p    1  1.00
  0.8000000000D+00  0.1000000000D+01


[MO]
 Sym=      1.1
 Ene=     -11.2128
 Spin= Alpha
 Occup=    2.000000
1 0.99243974765231
2 0.031175597379232
3 -0.031353690534081
4 0.000000014955896
5 0.000000008069596
6 -0.000000040499634
7 -0.000000026154566
8 -0.000000012713136
9 0.000000063692551
10 0.004381381552296
11 0.004381414785396
12 0.004381405224188
13 0.000000007907583
14 -0.000000002560280
15 0.000000000168869
16 -0.002432657127946
17 0.006164680348621
18 0.002001737123432
19 -0.000000002658067
20 0.000000001065789
21 -0.002432697739419
22 0.006164747682899
23 -0.000667234565354
24 -0.001025222837792
25 -0.001584495704136
26 -0.002432683740231
27 0.006164709055398
28 -0.000667239216140
29 0.001884832476053
30 -0.000095634658280
31 -0.002432647997933
32 0.006164610276971
33 -0.000667257368082
34 -0.000859609735036
35 0.001680143214580
 Sym=      2.1
 Ene=      -0.9417
 Spin= Alpha
 Occup=    2.000000
1 -0.23499662058267
2 0.41528875191664
3 0.11998123878863
4 0.000000519243384
5 0.000000440316968
6 -0.000002210136039
7 -0.000000172489324
8 -0.000000067027250
9 0.000000335762054
10 0.027107915852753
11 0.027108047338039
12 0.027107937327486
13 0.000000010704650
14 0.000000079516890
15 0.000000120821888
16 0.18099982535126
17 0.034971648428955
18 -0.018999702897054
19 0.000000015862663
20 -0.000000083341204
21 0.18100133250266
22 0.034971811520359
23 0.006333228270541
24 0.009731194801065
25 0.015039541247692
26 0.18100020360224
27 0.034971554420398
28 0.006333170385009
29 -0.017890152862895
30 0.000907644726344
31 0.18099731968687
32 0.034970896870109
33 0.006333203752228
34 0.008158908914995
35 -0.015946935355049
 Sym=      3.1
 Ene=      -0.5500
 Spin= Alpha
 Occup=    2.000000
1 -0.000000126262978
2 0.000000330063201
3 0.000000826472139
4 0.073761943789355
5 0.37706020655497
6 0.19080788113725
7 0.033106522565808
8 0.16923585276699
9 0.085640098133854
10 0.004435623369188
11 0.012401162700133
12 -0.016836677909930
13 -0.013090627071087
14 -0.006624401634452
15 -0.012065070066020
16 0.067961868957593
17 0.026967386997053
18 -0.003357320196970
19 0.010174205856120
20 0.005148558749174
21 -0.33974675410274
22 -0.13481167134119
23 -0.006920655001466
24 -0.003517786246818
25 -0.016012512471484
26 0.29606883090408
27 0.11748032177411
28 0.009755692813679
29 -0.011761733225111
30 0.006261534081719
31 -0.024283408493371
32 -0.009635656368350
33 0.001353368452692
34 0.009353523018281
35 0.006752307302395
 Sym=      4.1
 Ene=      -0.5500
 Spin= Alpha
 Occup=    2.000000
1 -0.000000617337565
2 0.000001503502870
3 0.000003186367749
4 0.083634906055835
5 -0.20288597321658
6 0.36859793354820
7 0.037537797538281
8 -0.091062034622531
9 0.16543893359423
10 0.005029712247075
11 -0.013416108780325
12 0.008386844199844
13 0.007043756222732
14 -0.012796956701064
15 -0.016379629865115
16 0.077059799249930
17 0.030577690120513
18 -0.003806700178118
19 -0.005474440320465
20 0.009945814043850
21 -0.19876989259450
22 -0.078872241474382
23 -0.002956680561017
24 -0.013485035728086
25 -0.002434538837490
26 -0.21792545561150
27 -0.086473236781506
28 -0.003459097174509
29 0.010671871639232
30 0.009126584069679
31 0.33963728753589
32 0.13476910579423
33 0.011164966356048
34 0.006001928812358
35 -0.012485161830504
 Sym=      5.1
 Ene=      -0.5500
 Spin= Alpha
 Occup=    2.000000
1 0.000000575911348
2 -0.000001207236983
3 -0.000001449124554
4 0.41423027334202
5 -0.026179762677659
6 -0.10839770254868
7 0.18592037624993
8 -0.011750209723785
9 -0.048652772710510
10 0.024909009102774
11 -0.012856774173861
12 -0.012052507863698
13 0.000908849040685
14 0.003763315782641
15 0.005455545876019
16 0.38165762023977
17 0.15144319799036
18 -0.018853992644554
19 -0.000706403691509
20 -0.002924906350600
21 -0.035807889717155
22 -0.014208810785050
23 0.010238052357036
24 -0.002149467689076
25 -0.005155138955743
26 -0.14515964427828
27 -0.057599957443235
28 0.007369915760500
29 0.010048497512109
30 -0.003470544382830
31 -0.20069012995469
32 -0.079634694124994
33 0.005913186876224
34 -0.007487697067849
35 0.010329474300249
 Sym=      6.1
 Ene=       0.1885
 Spin= Alpha
 Occup=    0.000000
1 0.11821488993350
2 -0.058888337025635
3 -3.39148301609390
4 -0.000000496379176
5 0.000000345058910
6 -0.000001730918071
7 -0.000005614335497
8 -0.000000397671011
9 0.000001998860799
10 -0.008105334854939
11 -0.008105366099891
12 -0.008105285391330
13 -0.000000027623930
14 -0.000000031795020
15 -0.000000059760237
16 -0.002334986002486
17 1.18997770059588
18 -0.005238938701456
19 0.000000042751155
20 -0.000000195245992
21 -0.002335640996933
22 1.18997818106555
23 0.001746368555574
24 0.002683224026957
25 0.004146701365403
26 -0.002335212082627
27 1.18997631375041
28 0.001746364194995
29 -0.004932853480915
30 0.000250096625667
31 -0.002334115152855
32 1.18997154716926
33 0.001746382124171
34 0.002249724953991
35 -0.004397295079042
 Sym=      7.1
 Ene=       0.2774
 Spin= Alpha
 Occup=    0.000000
1 0.000000320868041
2 -0.000001457997096
3 0.000026420904637
4 0.12148356338291
5 0.13831501928683
6 -0.22125686316349
7 0.58920072969251
8 0.67083658551773
9 -1.07310829052631
10 0.000876410766115
11 0.000430201828111
12 -0.001306856237532
13 -0.000576226614160
14 0.000921656082510
15 0.001164943983077
16 -0.013606128044694
17 -0.96990991184874
18 0.006668100643636
19 -0.000136671177697
20 0.000218562635400
21 -0.007145695919684
22 -0.50940775782248
23 -0.001308357869908
24 -0.001962628568019
25 -0.002603536344104
26 -0.011234370297836
27 -0.80089742893534
28 -0.001988355025076
29 0.005141287637846
30 -0.000049300648797
31 0.031989390863664
32 2.28018467360195
33 0.005199435910899
34 0.006716228606358
35 -0.013175634627315
 Sym=      8.1
 Ene=       0.2774
 Spin= Alpha
 Occup=    0.000000
1 -0.000000236257551
2 0.000000432271521
3 0.000010129985694
4 -0.24131259334146
5 0.15240156811214
6 -0.037223798717646
7 -1.17037946332828
8 0.73915884479108
9 -0.18053792940350
10 -0.001741267740402
11 0.001668088404430
12 0.000073226359159
13 -0.000634942729812
14 0.000155235128584
15 0.000080625740472
16 0.027028809925116
17 1.92662455764694
18 -0.013245448464282
19 -0.000150606762819
20 0.000036760663456
21 -0.003567341909214
22 -0.25426227692915
23 -0.000354834610126
24 -0.001061931792861
25 -0.001371784716127
26 -0.025281240708295
27 -1.80211314648778
28 -0.003965742072253
29 0.011725265094843
30 -0.000565794642718
31 0.001819794945650
32 0.12973941465430
33 0.000540896673516
34 0.000239439479722
35 -0.000725392038631
 Sym=      9.1
 Ene=       0.2774
 Spin= Alpha
 Occup=    0.000000
1 0.000000016853494
2 0.000000315599669
3 -0.000016692886443
4 0.099265775808233
5 0.20121180894595
6 0.18028707711953
7 0.48144603848072
8 0.97589517742595
9 0.87440717280456
10 0.000716419765863
11 0.000517534645425
12 -0.001233886093437
13 -0.000838312238625
14 -0.000751172299444
15 -0.001229737680262
16 -0.011118377451548
17 -0.79253261077016
18 0.005448629672565
19 -0.000198910896114
20 -0.000178162256915
21 0.031231139971467
22 2.22635519426402
23 0.005095755423610
24 0.007781645424436
25 0.012155771575028
26 -0.016548930666997
27 -1.17970696866172
28 -0.002850179197294
29 0.007575471348164
30 -0.000572556101442
31 -0.003565115923743
32 -0.25409652360822
33 -0.000690812561086
34 -0.000962447783657
35 0.001314509846045
 Sym=     10.1
 Ene=       0.5920
 Spin= Alpha
 Occup=    0.000000
1 -0.000000609281773
2 0.000005830769805
3 -0.000025316101956
4 -0.28333950254723
5 0.033563020471194
6 -0.12169403961478
7 1.23017223791704
8 -0.14571823087872
9 0.52836098173239