[Molden Format]
[Molpro variables]
_NUMVAR=  675.0000000000000    
_PATCHLEVEL=  675.0000000000000    
_EV2006= 0.3674930886769165E-01
_EV= 0.3674932534394180E-01
_KJOULE= 0.3808798324128737E-03
_KJOULE/MOL= 0.3808798324128737E-03
_CM= 0.4556335267302901E-05
_CM-1= 0.4556335267302901E-05
_KCAL= 0.1593601117815568E-02
_KCAL/MOL= 0.1593601117815568E-02
_KELVIN2006= 0.3166828861084835E-05
_KELVIN= 0.3166814820820034E-05
_HERTZ2006= 0.1519829850815779E-15
_HERTZ= 0.1519829846011223E-15
_HZ2006= 0.1519829850815779E-15
_HZ= 0.1519829846011223E-15
_TOA2006= 0.5291772490000000    
_TOA= 0.5291772090000000    
_TOANG2006= 0.5291772490000000    
_TOANG= 0.5291772090000000    
_TORAD= 0.1745329251994330E-01
_TOCM=  219474.6306700000    
_TODEBYE=  2.541580000000000    
_TOEV2006=  27.21139610000000    
_TOEV=  27.21138390000000    
_TOHERTZ2006=  6579683899900000.    
_TOHERTZ=  6579683920700000.    
_TOHZ2006=  6579683899900000.    
_TOHZ=  6579683920700000.    
_TOK2006=  315773.3000000000    
_TOK=  315774.7000000000    
_TOKCAL=  627.5096000000000    
_TOKELVIN2006=  315773.3000000000    
_TOKELVIN=  315774.7000000000    
_TOKJ=  2625.500000000000    
_TOKJOULE=  2625.500000000000    
_ANG2006=  1.889725988578923    
_ANG=  1.889726131421507    
_ANGSTROM2006=  1.889725988578923    
_ANGSTROM=  1.889726131421507    
_IGNORE_UNDEF=  2.000000000000000    
_STRICTCHECK=  0.000000000000000    
_SEW_ONEEL=  0.000000000000000    
_CPPDONE=FALSE
_DKROLL_DONE=  0.000000000000000    
_FOCKDONE=TRUE
_GRADONE=FALSE
_HESSDONE=FALSE
_INTDONE=TRUE
_SCFDONE=TRUE
_MODUL_CUDA=FALSE
_MODUL_SLATER=FALSE
_MODUL_MRCC=FALSE
_MRCC_EXEC=
_FITC_AO_SAVED=FALSE
_FITC_MO_SAVED=FALSE
_SHARED_FS=TRUE
_LSTYP=SEWARD
_INTYP=INTS
_GEOMTYP=ZMAT
_GRADTYP=ALASKA
_DIRECT=FALSE
_DKROLL=FALSE
_DKHO=FALSE
_DKHP=FALSE
_SYNCM=  0.000000000000000    
_DFTNAME=  0.000000000000000    
_DFTFUNC=  0.000000000000000    
_BASIS=6-311G
_BASISSETS=
_ZSIGNX=
_ZSIGNY=
_ZSIGNZ=
_ZCENTRE=
_ZSYMEL=
_ZPLANE=
_ZUNIT=
_ZORIENT=  1.000000000000000    
_CHARGE=  1.000000000000000    
_SCFCHARGE=  1.000000000000000    
_MCCHARGE=  1.000000000000000    
_CICHARGE=  1.000000000000000    
_CCCHARGE=  1.000000000000000    
_NELEC=  10.00000000000000    
!NELEC=  10.00000000000000    
_SCFNELEC=  10.00000000000000    
_MCNELEC=  10.00000000000000    
_CINELEC=  10.00000000000000    
_CCNELEC=  10.00000000000000    
_SPIN=  10.00000000000000    
!SPIN=  0.000000000000000    
_SCFSPIN=  0.000000000000000    
_MCSPIN=  0.000000000000000    
_CISPIN=  0.000000000000000    
_CCSPIN=  0.000000000000000    
_STATE=  0.000000000000000    
_SCFSTATE=  0.000000000000000    
_MCSTATE=  0.000000000000000    
_CISTATE=  0.000000000000000    
_SYMMETRY=  0.000000000000000    
!SYMMETRY=  0.000000000000000    
_SCFSYMMETRY=  0.000000000000000    
_MCSYMMETRY=  0.000000000000000    
_CISYMMETRY=  0.000000000000000    
_CCSYMMETRY=  0.000000000000000    
_SCFSYMM=  0.000000000000000    
_MCSYMM=  0.000000000000000    
_CISYMM=  0.000000000000000    
_CCSYMM=  0.000000000000000    
_SCFSYM=  0.000000000000000    
_MCSYM=  0.000000000000000    
_CISYM=  0.000000000000000    
_CCSYM=  0.000000000000000    
_WEIGHT=  0.000000000000000    
_MCWEIGHT=  0.000000000000000    
_LQUANT=  0.000000000000000    
_MCLQUANT=  0.000000000000000    
_OPTCONV=  0.000000000000000    
_QSDSTEP=  0.000000000000000    
_QSDIRC=  0.000000000000000    
_PROGRAM=HF-SCF
_CPUSTEP= 0.2000000000000000E-01
_SYSSTEP= 0.1000000000000000E-01
_WALLSTEP= 0.2000000000000000E-01
!PERT= 0.2000000000000000E-01
!DFMP2= 0.2000000000000000E-01
!DFSCF=  0.000000000000000    
!DFHFENERG=  0.000000000000000    
!SCSGRD=  0.000000000000000    
_ATCHARGE=  0.000000000000000    
_BASINP=  610.0000000000000    
_CARTESIAN=TRUE
_CFIT=TRUE
_CFIT_FRED=TRUE
_CFIT_FRED_THR=TRUE
_CHII2=TRUE
_CHIRS=TRUE
_COEFF=TRUE
_CPU2IDX_CFIT=TRUE
_CPU3IDX_CFIT=TRUE
_CPUASMBL_CFIT=TRUE
_CPUBLAS1=TRUE
_CPUBLAS2=TRUE
_CPUBLAS3=TRUE
_CPUINT_DTRAF=TRUE
_CPUSOLVE_CFIT=TRUE
_CPUTOT= 0.1000000000000000    
_CPUTR1_CFIT= 0.1000000000000000    
_CPUTR2_CFIT= 0.1000000000000000    
_CPUINV_CFIT= 0.1000000000000000    
_CPUFIT_CFIT= 0.1000000000000000    
_CPUTRANS_CFIT= 0.1000000000000000    
_CPUSCREEN_CFIT= 0.1000000000000000    
_CPUTRANS_DTRAF= 0.1000000000000000    
_CPUTRA_DTRAF= 0.1000000000000000    
_CPUTRIPL= 0.1000000000000000    
_SYSTRIPL= 0.1000000000000000    
_WALLTRIPL= 0.1000000000000000    
_CPUCCSD= 0.1000000000000000    
_SYSCCSD= 0.1000000000000000    
_WALLCCSD= 0.1000000000000000    
_CPUSORT=  0.000000000000000    
_SYSSORT=  0.000000000000000    
_WALLSORT= 0.9999990463256836E-02
_CPUF12= 0.9999990463256836E-02
_SYSF12= 0.9999990463256836E-02
_WALLF12= 0.9999990463256836E-02
_CPUF12B= 0.9999990463256836E-02
_SYSF12B= 0.9999990463256836E-02
_WALLF12B= 0.9999990463256836E-02
_CPUTRANS= 0.9999990463256836E-02
_SYSTRANS= 0.9999990463256836E-02
_WALLTRANS= 0.9999990463256836E-02
_DALTON= 0.9999990463256836E-02
_DARW= 0.9999990463256836E-02
_DECAY= 0.9999990463256836E-02
_DELE_CFIT= 0.9999990463256836E-02
_DELG_CFIT= 0.9999990463256836E-02
_DELTA= 0.9999990463256836E-02
_DFTEXFAC=  1.000000000000000    
_DFTFAC=  1.000000000000000    
_DFTFUN=  1.000000000000000    
_DFTFUNS=  1.000000000000000    
_DMEX=  1.000000000000000    
_DMEY=  1.000000000000000    
_DMEZ=  1.000000000000000    
_DMNX=  1.000000000000000    
_DMNY=  1.000000000000000    
_DMNZ=  1.000000000000000    
_DMSCF=  1.000000000000000    
_DMSCF_Efield=  1.000000000000000    
_DMSCF_I=  1.000000000000000    
_DMSCF_J=  1.000000000000000    
_DMSCF_K=  1.000000000000000    
_DMSCF_N1=  1.000000000000000    
_DMSCF_N2=  1.000000000000000    
_DMSCF_NUC=  1.000000000000000    
_DMSCF_T=  1.000000000000000    
_DMSCF_V=  1.000000000000000    
_DMX= 0.1438784451579522E-05
_DMY= 0.8248660527954144E-06
_DMZ=-0.4141878525473763E-05
_DMZCOR=-0.4141878525473763E-05
_DM_RHO1=-0.4141878525473763E-05
_DM_RVAL=-0.4141878525473763E-05
_DUMMYATOMS=-0.4141878525473763E-05
_FREQUENCIES=-0.4141878525473763E-05
_EDISP=-0.4141878525473763E-05
_EEDISP=-0.4141878525473763E-05
_EINTRA=-0.4141878525473763E-05
_EINTRA_R12=-0.4141878525473763E-05
_EINTER_R12=-0.4141878525473763E-05
_EIONIC=-0.4141878525473763E-05
_EMP2=-0.4141878525473763E-05
_EMP2_SING=-0.4141878525473763E-05
_EMP2_TRIP=-0.4141878525473763E-05
_EMP2_SINGLES=-0.4141878525473763E-05
_EMP2_SINGLES_D=-0.4141878525473763E-05
_EMP2_SCS=-0.4141878525473763E-05
_EMP2_STRONG=-0.4141878525473763E-05
_EMP2_CLOSE=-0.4141878525473763E-05
_EMP2_WEAK=-0.4141878525473763E-05
_EMP2_DIST=-0.4141878525473763E-05
_ECSING=-0.4141878525473763E-05
_ECTRIP=-0.4141878525473763E-05
_ECSINGLES=-0.4141878525473763E-05
_EF12=-0.4141878525473763E-05
_EF12_SING=-0.4141878525473763E-05
_EF12_TRIP=-0.4141878525473763E-05
_ECSING_F12=-0.4141878525473763E-05
_ECTRIP_F12=-0.4141878525473763E-05
_EF12_RHFRELAX=-0.4141878525473763E-05
_EF12_RHFRELAX_C=-0.4141878525473763E-05
_EF12_CONVSUPPRS=-0.4141878525473763E-05
_EF12_CONVSUPPRT=-0.4141878525473763E-05
_EF12_SINGLES=-0.4141878525473763E-05
_EF12_SINGLES_C=-0.4141878525473763E-05
_EF12_SCS=-0.4141878525473763E-05
_EF12_STRONG=-0.4141878525473763E-05
_EF12_CLOSE=-0.4141878525473763E-05
_EF12_WEAK=-0.4141878525473763E-05
_EF12_DIST=-0.4141878525473763E-05
_EF12S=-0.4141878525473763E-05
_EF12S_SING=-0.4141878525473763E-05
_EF12S_TRIP=-0.4141878525473763E-05
_EF12S_SCS=-0.4141878525473763E-05
_EF12S_STRONG=-0.4141878525473763E-05
_EF12S_CLOSE=-0.4141878525473763E-05
_EF12S_WEAK=-0.4141878525473763E-05
_EF12S_DIST=-0.4141878525473763E-05
_EF12D=-0.4141878525473763E-05
_EF12D_SING=-0.4141878525473763E-05
_EF12D_TRIP=-0.4141878525473763E-05
_EF12D_SCS=-0.4141878525473763E-05
_EF12D_STRONG=-0.4141878525473763E-05
_EF12D_CLOSE=-0.4141878525473763E-05
_EF12D_WEAK=-0.4141878525473763E-05
_EF12D_DIST=-0.4141878525473763E-05
_EF12F=-0.4141878525473763E-05
_EF12F_SING=-0.4141878525473763E-05
_EF12F_TRIP=-0.4141878525473763E-05
_EF12F_SCS=-0.4141878525473763E-05
_EF12F_STRONG=-0.4141878525473763E-05
_EF12F_CLOSE=-0.4141878525473763E-05
_EF12F_WEAK=-0.4141878525473763E-05
_EF12F_DIST=-0.4141878525473763E-05
_EMP2R12_2AD=-0.4141878525473763E-05
_EMP2R12_2A=-0.4141878525473763E-05
_EMP2R12_2AP=-0.4141878525473763E-05
_EMP2R12_2SAD=-0.4141878525473763E-05
_EMP2R12_2SA=-0.4141878525473763E-05
_EMP2R12_2SAP=-0.4141878525473763E-05
_EMP2R12_2B=-0.4141878525473763E-05
_EMP2_R12=-0.4141878525473763E-05
_EMP2_R12_A=-0.4141878525473763E-05
_EMP2_R12_AP=-0.4141878525473763E-05
_EMP2_R12_AD=-0.4141878525473763E-05
_EMP2_R12_2A=-0.4141878525473763E-05
_EMP2_R12_2SA=-0.4141878525473763E-05
_EMP2_R12_2SAP=-0.4141878525473763E-05
_EMP2_R12_2SAD=-0.4141878525473763E-05
_EMP2_R12_2AP=-0.4141878525473763E-05
_EMP2_R12_DIAG=-0.4141878525473763E-05
_EMP2_R12_STRONG=-0.4141878525473763E-05
_EMP2_R12_CLOSE=-0.4141878525473763E-05
_EMP2_R12_WEAK=-0.4141878525473763E-05
_EMP2_R12_DIST=-0.4141878525473763E-05
_EMP2_R12_SING=-0.4141878525473763E-05
_EMP2_R12_TRIP=-0.4141878525473763E-05
_EMP2_R12_SCS=-0.4141878525473763E-05
_EMP2R=-0.4141878525473763E-05
_EMP3=-0.4141878525473763E-05
_EMP3R=-0.4141878525473763E-05
_EMP4=-0.4141878525473763E-05
_ENERGC=-0.4141878525473763E-05
_ENERGCL=-0.4141878525473763E-05
_ENERG_CC=-0.4141878525473763E-05
_ENERG_CV=-0.4141878525473763E-05
_ENERG_VV=-0.4141878525473763E-05
_ENERGD=-0.4141878525473763E-05
_ENERGD0=-0.4141878525473763E-05
_ENERGD1=-0.4141878525473763E-05
_ENERGD2=-0.4141878525473763E-05
_ENERGD3=-0.4141878525473763E-05
_ENERGD4=-0.4141878525473763E-05
_ENERGP=-0.4141878525473763E-05
_ENERGP0=-0.4141878525473763E-05
_ENERGP1=-0.4141878525473763E-05
_ENERGP2=-0.4141878525473763E-05
_ENERGP3=-0.4141878525473763E-05
_ENERGP4=-0.4141878525473763E-05
_ENERGR=-0.4141878525473763E-05
_ENERGRR=-0.4141878525473763E-05
_ENERGS=-0.4141878525473763E-05
_ENERGT=-0.4141878525473763E-05
_ENERGU=-0.4141878525473763E-05
_ENERGW=-0.4141878525473763E-05
_ENERGY= -40.18789549492273    
_ENERGY_MP= -40.18789549492273    
_ECBS= -40.18789549492273    
_ECBSD= -40.18789549492273    
_ENUC=  13.68652296103505    
_EPDIST=  13.68652296103505    
_EPDIST_R12=  13.68652296103505    
_EPSUM=  13.68652296103505    
_EPSUM_R12=  13.68652296103505    
_EPS1= -11.20042395434546    
_EPS2= -11.20042395434546    
_EPS3= -11.20042395434546    
_EPS4= -11.20042395434546    
_EPS5= -11.20042395434546    
_EPS6= -11.20042395434546    
_EPS7= -11.20042395434546    
_EPS8= -11.20042395434546    
_EREL= -11.20042395434546    
_FLOPBLAS1= -11.20042395434546    
_FLOPBLAS2= -11.20042395434546    
_FLOPBLAS3= -11.20042395434546    
_FLOPDGM= -11.20042395434546    
_FLOPDGV= -11.20042395434546    
_FLOPMXM= -11.20042395434546    
_FLOPMXV= -11.20042395434546    
_FREQSTEP= -11.20042395434546    
!RS2GRSTATE= -11.20042395434546    
!RS2GRSYM= -11.20042395434546    
_GRADENERG= -11.20042395434546    
_GRADEXFAC=  9999.000000000000    
_GRADMETHOD=  1.000000000000000    
_GRADRECORD=  1.000000000000000    
_VIRIAL=  1.000000000000000    
_GRADX=  1.000000000000000    
_GRADY=  1.000000000000000    
_GRADZ=  1.000000000000000    
_GRADVAR=  1.000000000000000    
_GRID=  1.000000000000000    
_GRID_FREEZE=  1.000000000000000    
!GRID_FREEZE= -1.000000000000000    
!GRIDREC= -1.000000000000000    
_GRID_WEIGHT_CUT= -1.000000000000000    
_GRID_BLOCKSIZE= -1.000000000000000    
_GRID_SPARSITY= -1.000000000000000    
_GRID_RMAX= -1.000000000000000    
_GTOTAL= -1.000000000000000    
_HDIA= -1.000000000000000    
_HDIACI= -1.000000000000000    
_HEAT= -1.000000000000000    
_HTOTAL= -1.000000000000000    
_INCR_CORR= -1.000000000000000    
_INCR_COUNT= -1.000000000000000    
_INCR_READY= -1.000000000000000    
_ISCHI= -1.000000000000000    
_ITERATIONS=  8.000000000000000    
_KFIT=  8.000000000000000    
_LASTNELEC=  10.00000000000000    
_LASTSPIN=  0.000000000000000    
_LASTSYM=  1.000000000000000    
_LL=  1.000000000000000    
_MASSV=  1.000000000000000    
_MIN_ITER=  1.000000000000000    
_MIXANG=  1.000000000000000    
_MIXANGCI=  1.000000000000000    
_MPP_PROG=  0.000000000000000    
_MSENERGY=  0.000000000000000    
_NACME=  0.000000000000000    
_NBAS_CFIT=  0.000000000000000    
_NEWREC=  0.000000000000000    
_NGRID=  0.000000000000000    
_NPROC_MPP=  1.000000000000000    
_NPROC_SMP=  1.000000000000000    
_NUMSTEP=  0.000000000000000    
_OPNUC=  0.000000000000000    
_OPTCONVMX=  0.000000000000000    
_OPTCONVRMS=  0.000000000000000    
_OPTGRAD=  0.000000000000000    
_OPTGRADMX=  0.000000000000000    
_OPTGRADRMS=  0.000000000000000    
_OPTRMSMAX=  0.000000000000000    
_OPTSTEP=  0.000000000000000    
_ORBITAL=  2100.200000000000    
_PAOINT_CFIT=  2100.200000000000    
_PENALTY=  2100.200000000000    
_PH1INT_CFIT=  2100.200000000000    
_PH1VEC_CFIT=  2100.200000000000    
_PH2INT_CFIT=  2100.200000000000    
_PHASE=  2100.200000000000    
_PI=  3.141592653589793    
_PMOINT_CFIT=  3.141592653589793    
_PMOVEC_CFIT=  3.141592653589793    
_POISSON_ECORR=  3.141592653589793    
_POISSON_ERROR=  3.141592653589793    
_POLXX=  3.141592653589793    
_POLXY=  3.141592653589793    
_POLXZ=  3.141592653589793    
_POLYY=  3.141592653589793    
_POLYZ=  3.141592653589793    
_POLZZ=  3.141592653589793    
_POLYX=  3.141592653589793    
_POLZX=  3.141592653589793    
_POLZY=  3.141592653589793    
_POVINT_CFIT=  3.141592653589793    
_ROOT=  3.141592653589793    
_RPDIST=  3.141592653589793    
_RPMIN=  3.141592653589793    
_RPMAX=  3.141592653589793    
_EPCON=  3.141592653589793    
_ECDIAG=  3.141592653589793    
_EPDIAG=  3.141592653589793    
!MCACT=  3.141592653589793    
!MCCLOSED=  3.141592653589793    
!MCFREEZE=  3.141592653589793    
!MCMS2=  3.141592653589793    
!MCNEL=  3.141592653589793    
!MCNSTSYM=  3.141592653589793    
!MCSTATE=  3.141592653589793    
!MCSYM=  3.141592653589793    
!MCWEIGHT=  3.141592653589793    
_SEIG_MIN= 0.1821061410140968E-01
_SEWPROP=TRUE
_SMAT=TRUE
_SMATCI=TRUE
_SSQUARED=TRUE
_STATUS=  1.000000000000000    
_SYSBLAS1=  1.000000000000000    
_SYSBLAS2=  1.000000000000000    
_SYSBLAS3=  1.000000000000000    
_SYSTEM_RC=  1.000000000000000    
_SYSTOT= 0.2000000000000000E-01
_T1DIAG= 0.2000000000000000E-01
_D1DIAG= 0.2000000000000000E-01
_TASK= 0.2000000000000000E-01
_TROV= 0.2000000000000000E-01
_HMAT= 0.2000000000000000E-01
_UMAT= 0.2000000000000000E-01
_UMATCI= 0.2000000000000000E-01
_VERSION=  2010001.000000000    
_WALLBLAS1=  2010001.000000000    
_WALLBLAS2=  2010001.000000000    
_WALLBLAS3=  2010001.000000000    
_WALLTOT= 0.1100000000000000    
_ZPE= 0.1100000000000000    
!DFBASIS_COUL= 0.1100000000000000    
!DFBASIS_EXCH= 0.1100000000000000    
!DFBASIS_MP2= 0.1100000000000000    
!DFBASIS_F12K= 0.1100000000000000    
!DFBASIS_CCSD= 0.1100000000000000    
!RIBASIS_MP2= 0.1100000000000000    
!RIBASIS_EXCH= 0.1100000000000000    
_DATE=06-Aug-12
_LASTORB=RHF
_MACHINE=Darwin-11.4.2/tcg-129-105-55-200.theory.northwestern.edu(x86_64) 64 bit serial version
_METHODC=
_METHODT=
_OUTPUT=/Users/smparker/Research/methane/methane.xml
_PGROUP=C1
_SEMI=
_TIME=18:54:23
_ANSATZ=
_LIBMOL=/Users/smparker/programs/Molpro/bin/../lib/
_VDIAG=
_UDIAG=
!AOINTADDSC=
_TRANSFORM_FORCE=
_SOLVE_ITER=
_VSCF_FREQ=
_VMCSCF_FREQ=
_VCI_FREQ=
_VMP2_FREQ=
_VSCF_INTENS=
_VMCSCF_INTENS=
_VCI_INTENS=
_VMP2_INTENS=
!SURFREC=  0.000000000000000    
!POLYREC=  0.000000000000000    
!DIPREC=  0.000000000000000    
!VSCFREC=  0.000000000000000    
!VCIREC=  0.000000000000000    
!PVCIREC=  0.000000000000000    
!VMP2REC=  0.000000000000000    
!VMCSCFREC=  0.000000000000000    
!GAREC=  0.000000000000000    
!SCFORB=  21002.00000000000    
!MCORB=  21002.00000000000    
!CIOCC=  21002.00000000000    
!CICORE=  21002.00000000000    
!CICLOS=  21002.00000000000    
!UNO_OCC=  21002.00000000000    
!UNO_CLOSED=  21002.00000000000    
!CINSTSYM=  21002.00000000000    
!CIISTSYM=  21002.00000000000    
!CIISTMS2=  21002.00000000000    
!CIISTNEL=  21002.00000000000    
!CIMS2=  21002.00000000000    
!NEWMOL= -1.000000000000000    
!NEWSYM= -1.000000000000000    
!NEWORIENT= -1.000000000000000    
_SLFILES=slscratch
_NGSSTO=  9.000000000000000    
_SIN=SIN
_COS=COS
_TAN=TAN
_ACOS=ACOS
_ASIN=ASIN
_ATAN=ATAN
_COSH=COSH
_SINH=SINH
_TANH=TANH
_ABS=ABS
_MOD=MOD
_ERF=ERF
_REFC=REFC
_ERFC=ERFC
_HYPOT=HYPOT
_J0=J0
_J1=J1
_JN=JN
_GAMMA=GAMMA
_LGAMMA=LGAMMA
_Y0=Y0
_Y1=Y1
_YN=YN
_EXP=EXP
_LOG=LOG
_LOG10=LOG10
_SQRT=SQRT
_INT=INT
_NINT=NINT
_MAX=MAX
_MIN=MIN
_COSMO=  0.000000000000000    
_COSMOIT=  0.000000000000000    
_COSMOES=  0.000000000000000    
_COSMOEDS=  0.000000000000000    
_COSMOEC=  0.000000000000000    
_COSMOEDCORR=  0.000000000000000    
_FEPSI=  1.000000000000000    
_SL_IsMM=  0.000000000000000    
_SL_NSYM=  0.000000000000000    
_SL_System_BitSw=  0.000000000000000    
_SL_Unique_atoms=  0.000000000000000    
_SL_Last_energy=  0.000000000000000    
_SL_GRAD=  0.000000000000000    
_SL_MAXUPD_Hess=  5.000000000000000    
_SL_N_PRINT_COD=  5.000000000000000    
_SL_PRINT_CODES=  0.000000000000000    
_SL_BasType=  0.000000000000000    
_SL_Energy_Pred=  0.000000000000000    
_SL_New_Coords=  0.000000000000000    
_SL_Total_Nuclea=  0.000000000000000    
_SL_Highest_Mltp=  0.000000000000000    
_SL_Ref_Geom=  0.000000000000000    
_CONFIG=  0.000000000000000    
_OCC=  0.000000000000000    
_CORE=  0.000000000000000    
_CLOSED=  0.000000000000000    
_SCFOCC=  0.000000000000000    
_SCFCLOSED=  0.000000000000000    
_SCFCORE=  0.000000000000000    
_MCOCC=  0.000000000000000    
_MCCLOSED=  0.000000000000000    
_MCFROZEN=  0.000000000000000    
_MCCORE=  0.000000000000000    
_CIOCC=  0.000000000000000    
_CICLOSED=  0.000000000000000    
_CICORE=  0.000000000000000    
_CCOCC=  0.000000000000000    
_CCCLOSED=  0.000000000000000    
_CCCORE=  0.000000000000000    
_SRXC=  0.000000000000000    
_SRC=  0.000000000000000    
_SRX=  0.000000000000000    
_SRH=  0.000000000000000    
_E_EXCHANGE=  0.000000000000000    
!LATTICE= -1.000000000000000    
!NEWLATTICE=  0.000000000000000    
!LATGRAD_VAR=FALSE
!SEW_LATTICE=  1.000000000000000    
_LATGRADX=  1.000000000000000    
_LATGRADY=  1.000000000000000    
_LATGRADZ=  1.000000000000000    
!SCALTABINIT=  1.000000000000000    
!LOCAL=  0.000000000000000    
!SAVEOCC=  0.000000000000000    
!SAVEDOM= -1.000000000000000    
!RESTDOM= -1.000000000000000    
!SAVEDOM_HF= -1.000000000000000    
!RESTDOM_HF= -1.000000000000000    
!HESSREC=  0.000000000000000    
!FREQREC=  0.000000000000000    
!NMODREC=  0.000000000000000    
!GTASKS=  0.000000000000000    
!HTASKS=  0.000000000000000    
!THRCHG= 0.1000000000000000    
!DEBUG= -1.000000000000000    
!CFIT_CPHF=  0.000000000000000    
!RDOMAUX_CPHF=  3.000000000000000    
!THRAO_CPHF= 0.1000000000000000E-09
!THRMO_CPHF= 0.1000000000000000E-08
!THROV_CPHF= 0.1000000000000000E-11
!THRSW_CPHF= 0.1000000000000000E-09
!THRPROD_CPHF= 0.1000000000000000E-08
!THRAOPR_CPHF= 0.1000000000000000E-11
!CFIT_SCFGRD=  0.000000000000000    
!RDOMAUX_SCFGRD=  5.000000000000000    
!THRAO_SCFGRD= 0.1000000000000000E-09
!THRMO_SCFGRD= 0.1000000000000000E-08
!THROV_SCFGRD= 0.1000000000000000E-11
!THRSW_SCFGRD= 0.1000000000000000E-09
!THRPROD_SCFGRD= 0.1000000000000000E-08
!THRAOPR_SCFGRD= 0.1000000000000000E-11
!LOCFIT_SCF=  0.000000000000000    
!LOCFIT_MP2= -1.000000000000000    
_RIDOM=  0.000000000000000    
_FCI_METHOD=  0.000000000000000    
!CC2_METHOD=  0.000000000000000    
_BASIS2006=FALSE
_SVDDEL= -1.000000000000000    
_SVDDELA= -1.000000000000000    
_SVDDELP= -1.000000000000000    
_SVDDELF= -1.000000000000000    
_SVDDELS= -1.000000000000000    
_SVDDEL_ABS= -1.000000000000000    
_SVDDELA_ABS= -1.000000000000000    
_SVDDELP_ABS= -1.000000000000000    
_SVDDELF_ABS= -1.000000000000000    
_SVDDELS_ABS= -1.000000000000000    
_MAXBASIS=  0.000000000000000    
!OPT_CONICAL=  0.000000000000000    
!CLEARSP_JGRID=  0.000000000000000    
_SHLDTENSOR=  0.000000000000000    
_OMEGAF_S=  0.000000000000000    
_OMEGAF_T=  0.000000000000000    
_RE=  0.000000000000000    
_BE=  0.000000000000000    
_AE=  0.000000000000000    
_WE=  0.000000000000000    
_WEXE=  0.000000000000000    
_WEYE=  0.000000000000000    
_METHOD=  0.000000000000000    
_C0=  0.000000000000000    
_C0R=  0.000000000000000    
GX1= -1.591700000000000    
GY1=  1.172830000000000    
GZ1=  0.000000000000000    
GX2=-0.5217000000000001    
GY2=  1.172830000000000    
GZ2=  0.000000000000000    
GX3= -1.948360000000000    
GY3= 0.6248100000000003    
GZ3=-0.8469700000000000    
GX4= -1.948360000000000    
GY4=  2.180340000000000    
GZ4=-0.5112000000000000E-01
GX5= -1.948370000000000    
GY5= 0.7133400000000000    
GZ5= 0.8980900000000005    
[Atoms] Angs
C     1    6        -1.5917000000        1.1728300000        0.0000000000
H     2    1        -0.5217000000        1.1728300000        0.0000000000
H     3    1        -1.9483600000        0.6248100000       -0.8469700000
H     4    1        -1.9483600000        2.1803400000       -0.0511200000
H     5    1        -1.9483700000        0.7133400000        0.8980900000
[GTO]
  1 0
 s    6  1.00
  0.4563240000D+04  0.1966650249D-02
  0.6820240000D+03  0.1523060193D-01
  0.1549730000D+03  0.7612690966D-01
  0.4445530000D+02  0.2608010331D+00
  0.1302900000D+02  0.6164620782D+00
  0.1827730000D+01  0.2210060280D+00
 s    3  1.00
  0.2096420000D+02  0.1146600807D+00
  0.4803310000D+01  0.9199996477D+00
  0.1459330000D+01 -0.3030682134D-02
 s    1  1.00
  0.4834560000D+00  0.1000000000D+01
 s    1  1.00
  0.1455850000D+00  0.1000000000D+01
 p    3  1.00
  0.2096420000D+02  0.4024869267D-01
  0.4803310000D+01  0.2375939567D+00
  0.1459330000D+01  0.8158538515D+00
 p    1  1.00
  0.4834560000D+00  0.1000000000D+01
 p    1  1.00
  0.1455850000D+00  0.1000000000D+01
  
  2 0
 s    3  1.00
  0.3386500000D+02  0.2549381454D-01
  0.5094790000D+01  0.1903731086D+00
  0.1158790000D+01  0.8521614860D+00
 s    1  1.00
  0.3258400000D+00  0.1000000000D+01
 s    1  1.00
  0.1027410000D+00  0.1000000000D+01
  
  3 0
 s    3  1.00
  0.3386500000D+02  0.2549381454D-01
  0.5094790000D+01  0.1903731086D+00
  0.1158790000D+01  0.8521614860D+00
 s    1  1.00
  0.3258400000D+00  0.1000000000D+01
 s    1  1.00
  0.1027410000D+00  0.1000000000D+01
  
  4 0
 s    3  1.00
  0.3386500000D+02  0.2549381454D-01
  0.5094790000D+01  0.1903731086D+00
  0.1158790000D+01  0.8521614860D+00
 s    1  1.00
  0.3258400000D+00  0.1000000000D+01
 s    1  1.00
  0.1027410000D+00  0.1000000000D+01
  
  5 0
 s    3  1.00
  0.3386500000D+02  0.2549381454D-01
  0.5094790000D+01  0.1903731086D+00
  0.1158790000D+01  0.8521614860D+00
 s    1  1.00
  0.3258400000D+00  0.1000000000D+01
 s    1  1.00
  0.1027410000D+00  0.1000000000D+01


[MO]
 Sym=      1.1
 Ene=     -11.2004
 Spin= Alpha
 Occup=    2.000000
1 0.56322142621348
2 0.46653135706232
3 0.004793982778175
4 -0.001311991651890
5 0.000000005607859
6 0.000000000993740
7 -0.000000004996486
8 -0.000000000862761
9 0.000000001359929
10 -0.000000006824812
11 -0.000000001154030
12 -0.000000001702382
13 0.000000008493544
14 0.000364221175082
15 0.000076570188984
16 0.000249942401588
17 0.000364226242790
18 0.000076567800134
19 0.000249948378390
20 0.000364223382396
21 0.000076568338211
22 0.000249945019854
23 0.000364216090194
24 0.000076569674427
25 0.000249936416066
 Sym=      2.1
 Ene=      -0.9554
 Spin= Alpha
 Occup=    2.000000
1 -0.10385725680497
2 -0.17544002784319
3 0.45168128410849
4 0.35746070561950
5 0.000000245628627
6 0.000000254906852
7 -0.000001279661316
8 0.000000593654918
9 0.000000375217900
10 -0.000001883286795
11 0.000000353018775
12 0.000000125956521
13 -0.000000632757586
14 0.088179510831121
15 0.078910940709922
16 -0.001862430976900
17 0.088180370606493
18 0.078911511699830
19 -0.001862478577013
20 0.088179758095879
21 0.078911188486263
22 -0.001862473200677
23 0.088178193349650
24 0.078910362849725
25 -0.001862460025262
 Sym=      3.1
 Ene=      -0.5498
 Spin= Alpha
 Occup=    2.000000
1 -0.000000058840174
2 -0.000000108258109
3 0.000000205182146
4 0.000001035705597
5 0.032867720817759
6 0.16699743587002
7 0.084494047101019
8 0.055515983950031
9 0.28207096503280
10 0.14271635972796
11 0.033772281030290
12 0.17159372202448
13 0.086819305270042
14 0.031113991313508
15 0.046437677440992
16 0.018563487320437
17 -0.15465208762088
18 -0.23081796012406
19 -0.092269457379227
20 0.13466180164072
21 0.20098264205776
22 0.080342793172756
23 -0.011123487413610
24 -0.016601878538117
25 -0.006636580260602
 Sym=      4.1
 Ene=      -0.5498
 Spin= Alpha
 Occup=    2.000000
1 -0.000000287333561
2 -0.000000516331337
3 0.000001118537672
4 0.000003741510858
5 0.037550876156270
6 -0.089926233983137
7 0.16312755290067
8 0.063425836930823
9 -0.15189264960497
10 0.27553521044122
11 0.038584168591940
12 -0.092402214368013
13 0.16761869193696
14 0.035547896300252
15 0.053055396387987
16 0.021209056736862
17 -0.090484531058028
18 -0.13504819223794
19 -0.053985686109134
20 -0.099382490552161
21 -0.14832855472809
22 -0.059294517331069
23 0.15431985098008
24 0.23032326265667
25 0.092072074250766
 Sym=      5.1
 Ene=      -0.5498
 Spin= Alpha
 Occup=    2.000000
1 0.000000268268294
2 0.000000460183951
3 -0.000001251692062
4 -0.000001153346908
5 0.18334976594525
6 -0.011519208126644
7 -0.048555226444925
8 0.30969179195203
9 -0.019456537210426
10 -0.082013921921450
11 0.18839748398099
12 -0.011836093300009
13 -0.049892434634193
14 0.17356631703320
15 0.25904849134724
16 0.10355534155213
17 -0.015886517881299
18 -0.023710919815634
19 -0.009478538932420
20 -0.065927027104517
21 -0.098396551374910
22 -0.039334299858137
23 -0.091752847671374
24 -0.13694203244637
25 -0.054742910156884
 Sym=      6.1
 Ene=       0.1630
 Spin= Alpha
 Occup=    0.000000
1 -0.048115436120652
2 -0.076915232987330
3 0.060456349067932
4 2.18707377522927
5 0.000000240695906
6 -0.000000127564412
7 0.000000639391871
8 0.000000318106277
9 -0.000000142347551
10 0.000000714655296
11 0.000003051332388
12 -0.000000296827912
13 0.000001476025871
14 -0.007633903785621
15 0.006558499864724
16 -0.78916936624745
17 -0.007633643537259
18 0.006558704712402
19 -0.78916827743698
20 -0.007633880882106
21 0.006558714784307
22 -0.78916828541487
23 -0.007634487374896
24 0.006558738548194
25 -0.78916832515796
 Sym=      7.1
 Ene=       0.2385
 Spin= Alpha
 Occup=    0.000000
1 0.000000123119008
2 0.000000243729115
3 -0.000001692772372
4 0.000013031990211
5 0.049327076428404
6 0.070688033441927
7 -0.097073077630465
8 0.043851731157573
9 0.062841296932922
10 -0.086297684519621
11 0.44632535155683
12 0.63960718948952
13 -0.87834625560049
14 -0.007147153982089
15 0.051049113538017
16 -0.91304781246092
17 -0.003505203489438
18 0.025037055212669
19 -0.44781583112228
20 -0.007933468727014
21 0.056667591513592
22 -1.01353073194867
23 0.018587616031698
24 -0.13275542927522
25 2.37438371892397
 Sym=      8.1
 Ene=       0.2385
 Spin= Alpha
 Occup=    0.000000
1 -0.000000086274036
2 -0.000000149496062
3 0.000000466421554
4 0.000000563279669
5 -0.084009118950965
6 0.095300514760509
7 0.026708761440990
8 -0.074683677131708
9 0.084721079463613
10 0.023743768243489
11 -0.76013852065264
12 0.86230957270787
13 0.24166950833357
14 0.012173054381019
15 -0.086944247057516
16 1.55503561614676
17 0.006077970592505
18 -0.043415546486651
19 0.77649269320465
20 -0.016875245948038
21 0.12053260086613
22 -2.15575175993397
23 -0.001376246693592
24 0.009828055901602
25 -0.17577803195771
 Sym=      9.1
 Ene=       0.2385
 Spin= Alpha
 Occup=    0.000000
1 0.000000034028604
2 0.000000036351812
3 0.000000580748306
4 -0.000010519578836
5 0.085804576648847
6 0.052669416372695
7 0.081954603179355
8 0.076279557333711
9 0.046822273055269
10 0.072856665722666
11 0.77638526151032
12 0.47657064658448
13 0.74155144155308
14 -0.012433292388435
15 0.088803760872392
16 -1.58827495503381
17 0.017452579855457
18 -0.12466022330294
19 2.22957054804647
20 -0.002474243847246
21 0.017674742371220
22 -0.31610085952294
23 -0.002545694296672
24 0.018181710170978
25 -0.32518464824332
 Sym=     10.1
 Ene=       0.4304
 Spin= Alpha
 Occup=    0.000000
1 0.000000035451448
2 0.000000069178150
3 -0.000000215595405
4 -0.000005412934095
5 0.010596476384241
6 -0.002769041911353
7 0.001290881316921
8 -0.033695181460338
9 0.008805321527689
10 -0.004105160167620
11 1.52970689068631
12 -0.39974830052589
13 0.18637031838957
14 -0.064688637223186
15 -1.27256320529641
16 0.007691988185098
17 0.019143515905947
18 0.37658795598789
19 -0.002273637527067
20 0.037856958914129
21 0.74472183964296
22 -0.004499488375413
23 0.007689073293424
24 0.15125700546135
25 -0.000917559017827
 Sym=     11.1
 Ene=       0.4304
 Spin= Alpha
 Occup=    0.000000
1 -0.000000344213100
2 -0.000000618131217
3 0.000001981722076
4 -0.000022865624316
5 -0.001315812251145
6 0.000069959154639
7 0.010949210062354
8 0.004183489357603
9 -0.000223204972841
10 -0.034816545351454
11 -0.18992111006105
12 0.010139520795441
13 1.58063018246369
14 0.008030596223811
15 0.15799293789062
16 -0.000953227032529
17 0.050450929473075
18 0.99249422290685
19 -0.005980632025535
20 0.000111811316974
21 0.002212946909176
22 -0.000012447719727
23 -0.058595705786872
24 -1.15270430847954
25 0.006974140707876
 Sym=     12.1
 Ene=       0.4304
 Spin= Alpha
 Occup=    0.000000
1 0.000000080519886
2 0.000000145857991
3 -0.000000465728411
4 0.000003529285244
5 0.002757552844539
6 0.010674495729145
7 0.000262596230441
8 -0.008768327063001
9 -0.033943318747391
10 -0.000835852038134
11 0.39807427570437
12 1.54100324914900
13 0.037954140508610
14 -0.016833318927720
15 -0.33115414139474
16 0.001997771702828
17 0.040257350116971
18 0.79195106828546
19 -0.004769768552691
20 -0.055671229745473
21 -1.09518822169630
22 0.006601790165897
23 0.032247908887429
24 0.63439302275584
25 -0.003835331128933
 Sym=     13.1
 Ene=       0.7701
 Spin= Alpha
 Occup=    0.000000
1 -0.062072266425830
2 -0.12262683645826
3 0.34065171768060
4 2.73966130100050
5 -0.000001114091631
6 -0.000002100527432
7 0.000010547762227
8 -0.000005402243460
9 -0.000008987488996