[Molden Format]
[Molpro variables]
_NUMVAR=  675.0000000000000    
_PATCHLEVEL=  675.0000000000000    
_EV2006= 0.3674930886769165E-01
_EV= 0.3674932534394180E-01
_KJOULE= 0.3808798324128737E-03
_KJOULE/MOL= 0.3808798324128737E-03
_CM= 0.4556335267302901E-05
_CM-1= 0.4556335267302901E-05
_KCAL= 0.1593601117815568E-02
_KCAL/MOL= 0.1593601117815568E-02
_KELVIN2006= 0.3166828861084835E-05
_KELVIN= 0.3166814820820034E-05
_HERTZ2006= 0.1519829850815779E-15
_HERTZ= 0.1519829846011223E-15
_HZ2006= 0.1519829850815779E-15
_HZ= 0.1519829846011223E-15
_TOA2006= 0.5291772490000000    
_TOA= 0.5291772090000000    
_TOANG2006= 0.5291772490000000    
_TOANG= 0.5291772090000000    
_TORAD= 0.1745329251994330E-01
_TOCM=  219474.6306700000    
_TODEBYE=  2.541580000000000    
_TOEV2006=  27.21139610000000    
_TOEV=  27.21138390000000    
_TOHERTZ2006=  6579683899900000.    
_TOHERTZ=  6579683920700000.    
_TOHZ2006=  6579683899900000.    
_TOHZ=  6579683920700000.    
_TOK2006=  315773.3000000000    
_TOK=  315774.7000000000    
_TOKCAL=  627.5096000000000    
_TOKELVIN2006=  315773.3000000000    
_TOKELVIN=  315774.7000000000    
_TOKJ=  2625.500000000000    
_TOKJOULE=  2625.500000000000    
_ANG2006=  1.889725988578923    
_ANG=  1.889726131421507    
_ANGSTROM2006=  1.889725988578923    
_ANGSTROM=  1.889726131421507    
_IGNORE_UNDEF=  2.000000000000000    
_STRICTCHECK=  0.000000000000000    
_SEW_ONEEL=  0.000000000000000    
_CPPDONE=FALSE
_DKROLL_DONE=  0.000000000000000    
_FOCKDONE=TRUE
_GRADONE=FALSE
_HESSDONE=FALSE
_INTDONE=TRUE
_SCFDONE=TRUE
_MODUL_CUDA=FALSE
_MODUL_SLATER=FALSE
_MODUL_MRCC=FALSE
_MRCC_EXEC=
_FITC_AO_SAVED=FALSE
_FITC_MO_SAVED=FALSE
_SHARED_FS=TRUE
_LSTYP=SEWARD
_INTYP=INTS
_GEOMTYP=ZMAT
_GRADTYP=ALASKA
_DIRECT=FALSE
_DKROLL=FALSE
_DKHO=FALSE
_DKHP=FALSE
_SYNCM=  0.000000000000000    
_DFTNAME=  0.000000000000000    
_DFTFUNC=  0.000000000000000    
_BASIS=6-31G
_BASISSETS=
_ZSIGNX=
_ZSIGNY=
_ZSIGNZ=
_ZCENTRE=
_ZSYMEL=
_ZPLANE=
_ZUNIT=
_ZORIENT=  1.000000000000000    
_CHARGE=  1.000000000000000    
_SCFCHARGE=  1.000000000000000    
_MCCHARGE=  1.000000000000000    
_CICHARGE=  1.000000000000000    
_CCCHARGE=  1.000000000000000    
_NELEC=  10.00000000000000    
!NELEC=  10.00000000000000    
_SCFNELEC=  10.00000000000000    
_MCNELEC=  10.00000000000000    
_CINELEC=  10.00000000000000    
_CCNELEC=  10.00000000000000    
_SPIN=  10.00000000000000    
!SPIN=  0.000000000000000    
_SCFSPIN=  0.000000000000000    
_MCSPIN=  0.000000000000000    
_CISPIN=  0.000000000000000    
_CCSPIN=  0.000000000000000    
_STATE=  0.000000000000000    
_SCFSTATE=  0.000000000000000    
_MCSTATE=  0.000000000000000    
_CISTATE=  0.000000000000000    
_SYMMETRY=  0.000000000000000    
!SYMMETRY=  0.000000000000000    
_SCFSYMMETRY=  0.000000000000000    
_MCSYMMETRY=  0.000000000000000    
_CISYMMETRY=  0.000000000000000    
_CCSYMMETRY=  0.000000000000000    
_SCFSYMM=  0.000000000000000    
_MCSYMM=  0.000000000000000    
_CISYMM=  0.000000000000000    
_CCSYMM=  0.000000000000000    
_SCFSYM=  0.000000000000000    
_MCSYM=  0.000000000000000    
_CISYM=  0.000000000000000    
_CCSYM=  0.000000000000000    
_WEIGHT=  0.000000000000000    
_MCWEIGHT=  0.000000000000000    
_LQUANT=  0.000000000000000    
_MCLQUANT=  0.000000000000000    
_OPTCONV=  0.000000000000000    
_QSDSTEP=  0.000000000000000    
_QSDIRC=  0.000000000000000    
_PROGRAM=HF-SCF
_CPUSTEP= 0.1999999999999999E-01
_SYSSTEP=  0.000000000000000    
_WALLSTEP= 0.2000000000000000E-01
!PERT= 0.2000000000000000E-01
!DFMP2= 0.2000000000000000E-01
!DFSCF=  0.000000000000000    
!DFHFENERG=  0.000000000000000    
!SCSGRD=  0.000000000000000    
_ATCHARGE=  0.000000000000000    
_BASINP=  610.0000000000000    
_CARTESIAN=TRUE
_CFIT=TRUE
_CFIT_FRED=TRUE
_CFIT_FRED_THR=TRUE
_CHII2=TRUE
_CHIRS=TRUE
_COEFF=TRUE
_CPU2IDX_CFIT=TRUE
_CPU3IDX_CFIT=TRUE
_CPUASMBL_CFIT=TRUE
_CPUBLAS1=TRUE
_CPUBLAS2=TRUE
_CPUBLAS3=TRUE
_CPUINT_DTRAF=TRUE
_CPUSOLVE_CFIT=TRUE
_CPUTOT= 0.9000000000000000E-01
_CPUTR1_CFIT= 0.9000000000000000E-01
_CPUTR2_CFIT= 0.9000000000000000E-01
_CPUINV_CFIT= 0.9000000000000000E-01
_CPUFIT_CFIT= 0.9000000000000000E-01
_CPUTRANS_CFIT= 0.9000000000000000E-01
_CPUSCREEN_CFIT= 0.9000000000000000E-01
_CPUTRANS_DTRAF= 0.9000000000000000E-01
_CPUTRA_DTRAF= 0.9000000000000000E-01
_CPUTRIPL= 0.9000000000000000E-01
_SYSTRIPL= 0.9000000000000000E-01
_WALLTRIPL= 0.9000000000000000E-01
_CPUCCSD= 0.9000000000000000E-01
_SYSCCSD= 0.9000000000000000E-01
_WALLCCSD= 0.9000000000000000E-01
_CPUSORT= 0.1000000000000001E-01
_SYSSORT= 0.1000000000000000E-01
_WALLSORT= 0.9999990463256836E-02
_CPUF12= 0.9999990463256836E-02
_SYSF12= 0.9999990463256836E-02
_WALLF12= 0.9999990463256836E-02
_CPUF12B= 0.9999990463256836E-02
_SYSF12B= 0.9999990463256836E-02
_WALLF12B= 0.9999990463256836E-02
_CPUTRANS= 0.9999990463256836E-02
_SYSTRANS= 0.9999990463256836E-02
_WALLTRANS= 0.9999990463256836E-02
_DALTON= 0.9999990463256836E-02
_DARW= 0.9999990463256836E-02
_DECAY= 0.9999990463256836E-02
_DELE_CFIT= 0.9999990463256836E-02
_DELG_CFIT= 0.9999990463256836E-02
_DELTA= 0.9999990463256836E-02
_DFTEXFAC=  1.000000000000000    
_DFTFAC=  1.000000000000000    
_DFTFUN=  1.000000000000000    
_DFTFUNS=  1.000000000000000    
_DMEX=  1.000000000000000    
_DMEY=  1.000000000000000    
_DMEZ=  1.000000000000000    
_DMNX=  1.000000000000000    
_DMNY=  1.000000000000000    
_DMNZ=  1.000000000000000    
_DMSCF=  1.000000000000000    
_DMSCF_Efield=  1.000000000000000    
_DMSCF_I=  1.000000000000000    
_DMSCF_J=  1.000000000000000    
_DMSCF_K=  1.000000000000000    
_DMSCF_N1=  1.000000000000000    
_DMSCF_N2=  1.000000000000000    
_DMSCF_NUC=  1.000000000000000    
_DMSCF_T=  1.000000000000000    
_DMSCF_V=  1.000000000000000    
_DMX= 0.1469647727958545E-05
_DMY= 0.7512202309101212E-06
_DMZ=-0.3771215810521866E-05
_DMZCOR=-0.3771215810521866E-05
_DM_RHO1=-0.3771215810521866E-05
_DM_RVAL=-0.3771215810521866E-05
_DUMMYATOMS=-0.3771215810521866E-05
_FREQUENCIES=-0.3771215810521866E-05
_EDISP=-0.3771215810521866E-05
_EEDISP=-0.3771215810521866E-05
_EINTRA=-0.3771215810521866E-05
_EINTRA_R12=-0.3771215810521866E-05
_EINTER_R12=-0.3771215810521866E-05
_EIONIC=-0.3771215810521866E-05
_EMP2=-0.3771215810521866E-05
_EMP2_SING=-0.3771215810521866E-05
_EMP2_TRIP=-0.3771215810521866E-05
_EMP2_SINGLES=-0.3771215810521866E-05
_EMP2_SINGLES_D=-0.3771215810521866E-05
_EMP2_SCS=-0.3771215810521866E-05
_EMP2_STRONG=-0.3771215810521866E-05
_EMP2_CLOSE=-0.3771215810521866E-05
_EMP2_WEAK=-0.3771215810521866E-05
_EMP2_DIST=-0.3771215810521866E-05
_ECSING=-0.3771215810521866E-05
_ECTRIP=-0.3771215810521866E-05
_ECSINGLES=-0.3771215810521866E-05
_EF12=-0.3771215810521866E-05
_EF12_SING=-0.3771215810521866E-05
_EF12_TRIP=-0.3771215810521866E-05
_ECSING_F12=-0.3771215810521866E-05
_ECTRIP_F12=-0.3771215810521866E-05
_EF12_RHFRELAX=-0.3771215810521866E-05
_EF12_RHFRELAX_C=-0.3771215810521866E-05
_EF12_CONVSUPPRS=-0.3771215810521866E-05
_EF12_CONVSUPPRT=-0.3771215810521866E-05
_EF12_SINGLES=-0.3771215810521866E-05
_EF12_SINGLES_C=-0.3771215810521866E-05
_EF12_SCS=-0.3771215810521866E-05
_EF12_STRONG=-0.3771215810521866E-05
_EF12_CLOSE=-0.3771215810521866E-05
_EF12_WEAK=-0.3771215810521866E-05
_EF12_DIST=-0.3771215810521866E-05
_EF12S=-0.3771215810521866E-05
_EF12S_SING=-0.3771215810521866E-05
_EF12S_TRIP=-0.3771215810521866E-05
_EF12S_SCS=-0.3771215810521866E-05
_EF12S_STRONG=-0.3771215810521866E-05
_EF12S_CLOSE=-0.3771215810521866E-05
_EF12S_WEAK=-0.3771215810521866E-05
_EF12S_DIST=-0.3771215810521866E-05
_EF12D=-0.3771215810521866E-05
_EF12D_SING=-0.3771215810521866E-05
_EF12D_TRIP=-0.3771215810521866E-05
_EF12D_SCS=-0.3771215810521866E-05
_EF12D_STRONG=-0.3771215810521866E-05
_EF12D_CLOSE=-0.3771215810521866E-05
_EF12D_WEAK=-0.3771215810521866E-05
_EF12D_DIST=-0.3771215810521866E-05
_EF12F=-0.3771215810521866E-05
_EF12F_SING=-0.3771215810521866E-05
_EF12F_TRIP=-0.3771215810521866E-05
_EF12F_SCS=-0.3771215810521866E-05
_EF12F_STRONG=-0.3771215810521866E-05
_EF12F_CLOSE=-0.3771215810521866E-05
_EF12F_WEAK=-0.3771215810521866E-05
_EF12F_DIST=-0.3771215810521866E-05
_EMP2R12_2AD=-0.3771215810521866E-05
_EMP2R12_2A=-0.3771215810521866E-05
_EMP2R12_2AP=-0.3771215810521866E-05
_EMP2R12_2SAD=-0.3771215810521866E-05
_EMP2R12_2SA=-0.3771215810521866E-05
_EMP2R12_2SAP=-0.3771215810521866E-05
_EMP2R12_2B=-0.3771215810521866E-05
_EMP2_R12=-0.3771215810521866E-05
_EMP2_R12_A=-0.3771215810521866E-05
_EMP2_R12_AP=-0.3771215810521866E-05
_EMP2_R12_AD=-0.3771215810521866E-05
_EMP2_R12_2A=-0.3771215810521866E-05
_EMP2_R12_2SA=-0.3771215810521866E-05
_EMP2_R12_2SAP=-0.3771215810521866E-05
_EMP2_R12_2SAD=-0.3771215810521866E-05
_EMP2_R12_2AP=-0.3771215810521866E-05
_EMP2_R12_DIAG=-0.3771215810521866E-05
_EMP2_R12_STRONG=-0.3771215810521866E-05
_EMP2_R12_CLOSE=-0.3771215810521866E-05
_EMP2_R12_WEAK=-0.3771215810521866E-05
_EMP2_R12_DIST=-0.3771215810521866E-05
_EMP2_R12_SING=-0.3771215810521866E-05
_EMP2_R12_TRIP=-0.3771215810521866E-05
_EMP2_R12_SCS=-0.3771215810521866E-05
_EMP2R=-0.3771215810521866E-05
_EMP3=-0.3771215810521866E-05
_EMP3R=-0.3771215810521866E-05
_EMP4=-0.3771215810521866E-05
_ENERGC=-0.3771215810521866E-05
_ENERGCL=-0.3771215810521866E-05
_ENERG_CC=-0.3771215810521866E-05
_ENERG_CV=-0.3771215810521866E-05
_ENERG_VV=-0.3771215810521866E-05
_ENERGD=-0.3771215810521866E-05
_ENERGD0=-0.3771215810521866E-05
_ENERGD1=-0.3771215810521866E-05
_ENERGD2=-0.3771215810521866E-05
_ENERGD3=-0.3771215810521866E-05
_ENERGD4=-0.3771215810521866E-05
_ENERGP=-0.3771215810521866E-05
_ENERGP0=-0.3771215810521866E-05
_ENERGP1=-0.3771215810521866E-05
_ENERGP2=-0.3771215810521866E-05
_ENERGP3=-0.3771215810521866E-05
_ENERGP4=-0.3771215810521866E-05
_ENERGR=-0.3771215810521866E-05
_ENERGRR=-0.3771215810521866E-05
_ENERGS=-0.3771215810521866E-05
_ENERGT=-0.3771215810521866E-05
_ENERGU=-0.3771215810521866E-05
_ENERGW=-0.3771215810521866E-05
_ENERGY= -40.18014096878888    
_ENERGY_MP= -40.18014096878888    
_ECBS= -40.18014096878888    
_ECBSD= -40.18014096878888    
_ENUC=  13.68652296103505    
_EPDIST=  13.68652296103505    
_EPDIST_R12=  13.68652296103505    
_EPSUM=  13.68652296103505    
_EPSUM_R12=  13.68652296103505    
_EPS1= -11.19789019412419    
_EPS2= -11.19789019412419    
_EPS3= -11.19789019412419    
_EPS4= -11.19789019412419    
_EPS5= -11.19789019412419    
_EPS6= -11.19789019412419    
_EPS7= -11.19789019412419    
_EPS8= -11.19789019412419    
_EREL= -11.19789019412419    
_FLOPBLAS1= -11.19789019412419    
_FLOPBLAS2= -11.19789019412419    
_FLOPBLAS3= -11.19789019412419    
_FLOPDGM= -11.19789019412419    
_FLOPDGV= -11.19789019412419    
_FLOPMXM= -11.19789019412419    
_FLOPMXV= -11.19789019412419    
_FREQSTEP= -11.19789019412419    
!RS2GRSTATE= -11.19789019412419    
!RS2GRSYM= -11.19789019412419    
_GRADENERG= -11.19789019412419    
_GRADEXFAC=  9999.000000000000    
_GRADMETHOD=  1.000000000000000    
_GRADRECORD=  1.000000000000000    
_VIRIAL=  1.000000000000000    
_GRADX=  1.000000000000000    
_GRADY=  1.000000000000000    
_GRADZ=  1.000000000000000    
_GRADVAR=  1.000000000000000    
_GRID=  1.000000000000000    
_GRID_FREEZE=  1.000000000000000    
!GRID_FREEZE= -1.000000000000000    
!GRIDREC= -1.000000000000000    
_GRID_WEIGHT_CUT= -1.000000000000000    
_GRID_BLOCKSIZE= -1.000000000000000    
_GRID_SPARSITY= -1.000000000000000    
_GRID_RMAX= -1.000000000000000    
_GTOTAL= -1.000000000000000    
_HDIA= -1.000000000000000    
_HDIACI= -1.000000000000000    
_HEAT= -1.000000000000000    
_HTOTAL= -1.000000000000000    
_INCR_CORR= -1.000000000000000    
_INCR_COUNT= -1.000000000000000    
_INCR_READY= -1.000000000000000    
_ISCHI= -1.000000000000000    
_ITERATIONS=  7.000000000000000    
_KFIT=  7.000000000000000    
_LASTNELEC=  10.00000000000000    
_LASTSPIN=  0.000000000000000    
_LASTSYM=  1.000000000000000    
_LL=  1.000000000000000    
_MASSV=  1.000000000000000    
_MIN_ITER=  1.000000000000000    
_MIXANG=  1.000000000000000    
_MIXANGCI=  1.000000000000000    
_MPP_PROG=  0.000000000000000    
_MSENERGY=  0.000000000000000    
_NACME=  0.000000000000000    
_NBAS_CFIT=  0.000000000000000    
_NEWREC=  0.000000000000000    
_NGRID=  0.000000000000000    
_NPROC_MPP=  1.000000000000000    
_NPROC_SMP=  1.000000000000000    
_NUMSTEP=  0.000000000000000    
_OPNUC=  0.000000000000000    
_OPTCONVMX=  0.000000000000000    
_OPTCONVRMS=  0.000000000000000    
_OPTGRAD=  0.000000000000000    
_OPTGRADMX=  0.000000000000000    
_OPTGRADRMS=  0.000000000000000    
_OPTRMSMAX=  0.000000000000000    
_OPTSTEP=  0.000000000000000    
_ORBITAL=  2100.200000000000    
_PAOINT_CFIT=  2100.200000000000    
_PENALTY=  2100.200000000000    
_PH1INT_CFIT=  2100.200000000000    
_PH1VEC_CFIT=  2100.200000000000    
_PH2INT_CFIT=  2100.200000000000    
_PHASE=  2100.200000000000    
_PI=  3.141592653589793    
_PMOINT_CFIT=  3.141592653589793    
_PMOVEC_CFIT=  3.141592653589793    
_POISSON_ECORR=  3.141592653589793    
_POISSON_ERROR=  3.141592653589793    
_POLXX=  3.141592653589793    
_POLXY=  3.141592653589793    
_POLXZ=  3.141592653589793    
_POLYY=  3.141592653589793    
_POLYZ=  3.141592653589793    
_POLZZ=  3.141592653589793    
_POLYX=  3.141592653589793    
_POLZX=  3.141592653589793    
_POLZY=  3.141592653589793    
_POVINT_CFIT=  3.141592653589793    
_ROOT=  3.141592653589793    
_RPDIST=  3.141592653589793    
_RPMIN=  3.141592653589793    
_RPMAX=  3.141592653589793    
_EPCON=  3.141592653589793    
_ECDIAG=  3.141592653589793    
_EPDIAG=  3.141592653589793    
!MCACT=  3.141592653589793    
!MCCLOSED=  3.141592653589793    
!MCFREEZE=  3.141592653589793    
!MCMS2=  3.141592653589793    
!MCNEL=  3.141592653589793    
!MCNSTSYM=  3.141592653589793    
!MCSTATE=  3.141592653589793    
!MCSYM=  3.141592653589793    
!MCWEIGHT=  3.141592653589793    
_SEIG_MIN= 0.1921775888674632E-01
_SEWPROP=TRUE
_SMAT=TRUE
_SMATCI=TRUE
_SSQUARED=TRUE
_STATUS=  1.000000000000000    
_SYSBLAS1=  1.000000000000000    
_SYSBLAS2=  1.000000000000000    
_SYSBLAS3=  1.000000000000000    
_SYSTEM_RC=  1.000000000000000    
_SYSTOT= 0.2000000000000000E-01
_T1DIAG= 0.2000000000000000E-01
_D1DIAG= 0.2000000000000000E-01
_TASK= 0.2000000000000000E-01
_TROV= 0.2000000000000000E-01
_HMAT= 0.2000000000000000E-01
_UMAT= 0.2000000000000000E-01
_UMATCI= 0.2000000000000000E-01
_VERSION=  2010001.000000000    
_WALLBLAS1=  2010001.000000000    
_WALLBLAS2=  2010001.000000000    
_WALLBLAS3=  2010001.000000000    
_WALLTOT= 0.1100000000000000    
_ZPE= 0.1100000000000000    
!DFBASIS_COUL= 0.1100000000000000    
!DFBASIS_EXCH= 0.1100000000000000    
!DFBASIS_MP2= 0.1100000000000000    
!DFBASIS_F12K= 0.1100000000000000    
!DFBASIS_CCSD= 0.1100000000000000    
!RIBASIS_MP2= 0.1100000000000000    
!RIBASIS_EXCH= 0.1100000000000000    
_DATE=06-Aug-12
_LASTORB=RHF
_MACHINE=Darwin-11.4.2/tcg-129-105-55-200.theory.northwestern.edu(x86_64) 64 bit serial version
_METHODC=
_METHODT=
_OUTPUT=/Users/smparker/Research/methane/methane.xml
_PGROUP=C1
_SEMI=
_TIME=18:53:34
_ANSATZ=
_LIBMOL=/Users/smparker/programs/Molpro/bin/../lib/
_VDIAG=
_UDIAG=
!AOINTADDSC=
_TRANSFORM_FORCE=
_SOLVE_ITER=
_VSCF_FREQ=
_VMCSCF_FREQ=
_VCI_FREQ=
_VMP2_FREQ=
_VSCF_INTENS=
_VMCSCF_INTENS=
_VCI_INTENS=
_VMP2_INTENS=
!SURFREC=  0.000000000000000    
!POLYREC=  0.000000000000000    
!DIPREC=  0.000000000000000    
!VSCFREC=  0.000000000000000    
!VCIREC=  0.000000000000000    
!PVCIREC=  0.000000000000000    
!VMP2REC=  0.000000000000000    
!VMCSCFREC=  0.000000000000000    
!GAREC=  0.000000000000000    
!SCFORB=  21002.00000000000    
!MCORB=  21002.00000000000    
!CIOCC=  21002.00000000000    
!CICORE=  21002.00000000000    
!CICLOS=  21002.00000000000    
!UNO_OCC=  21002.00000000000    
!UNO_CLOSED=  21002.00000000000    
!CINSTSYM=  21002.00000000000    
!CIISTSYM=  21002.00000000000    
!CIISTMS2=  21002.00000000000    
!CIISTNEL=  21002.00000000000    
!CIMS2=  21002.00000000000    
!NEWMOL= -1.000000000000000    
!NEWSYM= -1.000000000000000    
!NEWORIENT= -1.000000000000000    
_SLFILES=slscratch
_NGSSTO=  9.000000000000000    
_SIN=SIN
_COS=COS
_TAN=TAN
_ACOS=ACOS
_ASIN=ASIN
_ATAN=ATAN
_COSH=COSH
_SINH=SINH
_TANH=TANH
_ABS=ABS
_MOD=MOD
_ERF=ERF
_REFC=REFC
_ERFC=ERFC
_HYPOT=HYPOT
_J0=J0
_J1=J1
_JN=JN
_GAMMA=GAMMA
_LGAMMA=LGAMMA
_Y0=Y0
_Y1=Y1
_YN=YN
_EXP=EXP
_LOG=LOG
_LOG10=LOG10
_SQRT=SQRT
_INT=INT
_NINT=NINT
_MAX=MAX
_MIN=MIN
_COSMO=  0.000000000000000    
_COSMOIT=  0.000000000000000    
_COSMOES=  0.000000000000000    
_COSMOEDS=  0.000000000000000    
_COSMOEC=  0.000000000000000    
_COSMOEDCORR=  0.000000000000000    
_FEPSI=  1.000000000000000    
_SL_IsMM=  0.000000000000000    
_SL_NSYM=  0.000000000000000    
_SL_System_BitSw=  0.000000000000000    
_SL_Unique_atoms=  0.000000000000000    
_SL_Last_energy=  0.000000000000000    
_SL_GRAD=  0.000000000000000    
_SL_MAXUPD_Hess=  5.000000000000000    
_SL_N_PRINT_COD=  5.000000000000000    
_SL_PRINT_CODES=  0.000000000000000    
_SL_BasType=  0.000000000000000    
_SL_Energy_Pred=  0.000000000000000    
_SL_New_Coords=  0.000000000000000    
_SL_Total_Nuclea=  0.000000000000000    
_SL_Highest_Mltp=  0.000000000000000    
_SL_Ref_Geom=  0.000000000000000    
_CONFIG=  0.000000000000000    
_OCC=  0.000000000000000    
_CORE=  0.000000000000000    
_CLOSED=  0.000000000000000    
_SCFOCC=  0.000000000000000    
_SCFCLOSED=  0.000000000000000    
_SCFCORE=  0.000000000000000    
_MCOCC=  0.000000000000000    
_MCCLOSED=  0.000000000000000    
_MCFROZEN=  0.000000000000000    
_MCCORE=  0.000000000000000    
_CIOCC=  0.000000000000000    
_CICLOSED=  0.000000000000000    
_CICORE=  0.000000000000000    
_CCOCC=  0.000000000000000    
_CCCLOSED=  0.000000000000000    
_CCCORE=  0.000000000000000    
_SRXC=  0.000000000000000    
_SRC=  0.000000000000000    
_SRX=  0.000000000000000    
_SRH=  0.000000000000000    
_E_EXCHANGE=  0.000000000000000    
!LATTICE= -1.000000000000000    
!NEWLATTICE=  0.000000000000000    
!LATGRAD_VAR=FALSE
!SEW_LATTICE=  1.000000000000000    
_LATGRADX=  1.000000000000000    
_LATGRADY=  1.000000000000000    
_LATGRADZ=  1.000000000000000    
!SCALTABINIT=  1.000000000000000    
!LOCAL=  0.000000000000000    
!SAVEOCC=  0.000000000000000    
!SAVEDOM= -1.000000000000000    
!RESTDOM= -1.000000000000000    
!SAVEDOM_HF= -1.000000000000000    
!RESTDOM_HF= -1.000000000000000    
!HESSREC=  0.000000000000000    
!FREQREC=  0.000000000000000    
!NMODREC=  0.000000000000000    
!GTASKS=  0.000000000000000    
!HTASKS=  0.000000000000000    
!THRCHG= 0.1000000000000000    
!DEBUG= -1.000000000000000    
!CFIT_CPHF=  0.000000000000000    
!RDOMAUX_CPHF=  3.000000000000000    
!THRAO_CPHF= 0.1000000000000000E-09
!THRMO_CPHF= 0.1000000000000000E-08
!THROV_CPHF= 0.1000000000000000E-11
!THRSW_CPHF= 0.1000000000000000E-09
!THRPROD_CPHF= 0.1000000000000000E-08
!THRAOPR_CPHF= 0.1000000000000000E-11
!CFIT_SCFGRD=  0.000000000000000    
!RDOMAUX_SCFGRD=  5.000000000000000    
!THRAO_SCFGRD= 0.1000000000000000E-09
!THRMO_SCFGRD= 0.1000000000000000E-08
!THROV_SCFGRD= 0.1000000000000000E-11
!THRSW_SCFGRD= 0.1000000000000000E-09
!THRPROD_SCFGRD= 0.1000000000000000E-08
!THRAOPR_SCFGRD= 0.1000000000000000E-11
!LOCFIT_SCF=  0.000000000000000    
!LOCFIT_MP2= -1.000000000000000    
_RIDOM=  0.000000000000000    
_FCI_METHOD=  0.000000000000000    
!CC2_METHOD=  0.000000000000000    
_BASIS2006=FALSE
_SVDDEL= -1.000000000000000    
_SVDDELA= -1.000000000000000    
_SVDDELP= -1.000000000000000    
_SVDDELF= -1.000000000000000    
_SVDDELS= -1.000000000000000    
_SVDDEL_ABS= -1.000000000000000    
_SVDDELA_ABS= -1.000000000000000    
_SVDDELP_ABS= -1.000000000000000    
_SVDDELF_ABS= -1.000000000000000    
_SVDDELS_ABS= -1.000000000000000    
_MAXBASIS=  0.000000000000000    
!OPT_CONICAL=  0.000000000000000    
!CLEARSP_JGRID=  0.000000000000000    
_SHLDTENSOR=  0.000000000000000    
_OMEGAF_S=  0.000000000000000    
_OMEGAF_T=  0.000000000000000    
_RE=  0.000000000000000    
_BE=  0.000000000000000    
_AE=  0.000000000000000    
_WE=  0.000000000000000    
_WEXE=  0.000000000000000    
_WEYE=  0.000000000000000    
_METHOD=  0.000000000000000    
_C0=  0.000000000000000    
_C0R=  0.000000000000000    
GX1= -1.591700000000000    
GY1=  1.172830000000000    
GZ1=  0.000000000000000    
GX2=-0.5217000000000001    
GY2=  1.172830000000000    
GZ2=  0.000000000000000    
GX3= -1.948360000000000    
GY3= 0.6248100000000003    
GZ3=-0.8469700000000000    
GX4= -1.948360000000000    
GY4=  2.180340000000000    
GZ4=-0.5112000000000000E-01
GX5= -1.948370000000000    
GY5= 0.7133400000000000    
GZ5= 0.8980900000000005    
[Atoms] Angs
C     1    6        -1.5917000000        1.1728300000        0.0000000000
H     2    1        -0.5217000000        1.1728300000        0.0000000000
H     3    1        -1.9483600000        0.6248100000       -0.8469700000
H     4    1        -1.9483600000        2.1803400000       -0.0511200000
H     5    1        -1.9483700000        0.7133400000        0.8980900000
[GTO]
  1 0
 s    6  1.00
  0.3047524900D+04  0.1834737091D-02
  0.4573695200D+03  0.1403732293D-01
  0.1039486800D+03  0.6884262165D-01
  0.2921015500D+02  0.2321844388D+00
  0.9286663000D+01  0.4679413476D+00
  0.3163927000D+01  0.3623119882D+00
 s    3  1.00
  0.7868272300D+01 -0.1193324245D+00
  0.1881288500D+01 -0.1608541561D+00
  0.5442492600D+00  0.1143456443D+01
 s    1  1.00
  0.1687144800D+00  0.1000000000D+01
 p    3  1.00
  0.7868272300D+01  0.6899906693D-01
  0.1881288500D+01  0.3164239597D+00
  0.5442492600D+00  0.7443082892D+00
 p    1  1.00
  0.1687144800D+00  0.1000000000D+01
  
  2 0
 s    3  1.00
  0.1873113700D+02  0.3349460400D-01
  0.2825394400D+01  0.2347269500D+00
  0.6401216900D+00  0.8137573301D+00
 s    1  1.00
  0.1612777600D+00  0.1000000000D+01
  
  3 0
 s    3  1.00
  0.1873113700D+02  0.3349460400D-01
  0.2825394400D+01  0.2347269500D+00
  0.6401216900D+00  0.8137573301D+00
 s    1  1.00
  0.1612777600D+00  0.1000000000D+01
  
  4 0
 s    3  1.00
  0.1873113700D+02  0.3349460400D-01
  0.2825394400D+01  0.2347269500D+00
  0.6401216900D+00  0.8137573301D+00
 s    1  1.00
  0.1612777600D+00  0.1000000000D+01
  
  5 0
 s    3  1.00
  0.1873113700D+02  0.3349460400D-01
  0.2825394400D+01  0.2347269500D+00
  0.6401216900D+00  0.8137573301D+00
 s    1  1.00
  0.1612777600D+00  0.1000000000D+01


[MO]
 Sym=      1.1
 Ene=     -11.1979
 Spin= Alpha
 Occup=    2.000000
1 0.99611940752854
2 0.025750218161247
3 -0.016982353090683
4 0.000000009313509
5 0.000000003790262
6 -0.000000019021635
7 -0.000000026695489
8 -0.000000009346684
9 0.000000046851782
10 -0.000117364305800
11 0.003235517960990
12 -0.000117368169340
13 0.003235538138917
14 -0.000117367120704
15 0.003235517168250
16 -0.000117364448769
17 0.003235463538854
 Sym=      2.1
 Ene=      -0.9541
 Spin= Alpha
 Occup=    2.000000
1 -0.19773465866224
2 0.37501113643678
3 0.37720334989683
4 0.000000669887123
5 0.000000527773697
6 -0.000002649145780
7 0.000000417557471
8 0.000000116067756
9 -0.000000583072440
10 0.13620661111289
11 0.032438506703524
12 0.13620782905298
13 0.032438689616692
14 0.13620696754992
15 0.032438617300104
16 0.13620476670482
17 0.032438432111651
 Sym=      3.1
 Ene=      -0.5482
 Spin= Alpha
 Occup=    2.000000
1 -0.000000127794735
2 0.000000114019464
3 0.000000924520013
4 0.076024202223501
5 0.38615796088797
6 0.19576429283373
7 0.037914096993591
8 0.19258152123203
9 0.097629618588301
10 0.052419971599445
11 0.041944066904774
12 -0.26069175371618
13 -0.20859269174964
14 0.22679016749564
15 0.18146649735631
16 -0.018517995612004
17 -0.014817126565658
 Sym=      4.1
 Ene=      -0.5482
 Spin= Alpha
 Occup=    2.000000
1 -0.000000591683753
2 0.000000735771855
3 0.000003406458731
4 0.087962746125838
5 -0.20838990323559
6 0.37690395266464
7 0.043867750464427
8 -0.10392752491929
9 0.18796790070085
10 0.060653004713662
11 0.048532220258695
12 -0.15233618785428
13 -0.12189205045125
14 -0.16792866685129
15 -0.13436846453642
16 0.25961323014225
17 0.20773109217171
 Sym=      5.1
 Ene=      -0.5482
 Spin= Alpha
 Occup=    2.000000
1 0.000000505089041
2 -0.000001021070967
3 -0.000001255796623
4 0.42391455617242
5 -0.026012038062492
6 -0.11331516111824
7 0.21141254934657
8 -0.012972291745669
9 -0.056512517373899
10 0.29229542599720
11 0.23388202636183
12 -0.026398579896051
13 -0.021123287839214
14 -0.11058712133895
15 -0.088487234932424
16 -0.15531010078365
17 -0.12427265129768
 Sym=      6.1
 Ene=       0.2586
 Spin= Alpha
 Occup=    0.000000
1 -0.15275425565922
2 0.086221586128303
3 2.86619110611498
4 0.000000580347548
5 -0.000000689878140
6 0.000003460804033
7 0.000005437139833
8 -0.000001413154903
9 0.000007085493339
10 0.006211692214693
11 -1.06299452779502
12 0.006212603259408
13 -1.06298622040435
14 0.006211812091397
15 -1.06299007381091
16 0.006209789585833
17 -1.06299992816669
 Sym=      7.1
 Ene=       0.3289
 Spin= Alpha
 Occup=    0.000000
1 -0.000000985294822
2 -0.000001037153894
3 0.000043614541280
4 0.15295710330313
5 0.11477827671361
6 -0.22548519130135
7 0.79159895186105
8 0.59401342719874
9 -1.16695652804085
10 -0.041585124700425
11 -1.07365989159881
12 -0.018681153219122
13 -0.48234146456472
14 -0.018448838772423
15 -0.47635617142785
16 0.078719215788243
17 2.03229934409565
 Sym=      8.1
 Ene=       0.3289
 Spin= Alpha
 Occup=    0.000000
1 -0.000000679286660
2 0.000000154384569
3 0.000021833415806
4 -0.24278409721903
5 0.14075260971971
6 -0.093044923552951
7 -1.25648710470532
8 0.72844253279485
9 -0.48153908965504
10 0.066009703882122
11 1.70418524112384
12 -0.022427523556646
13 -0.57902820898695
14 -0.059244604764910
15 -1.52956163082360
16 0.015662946588775
17 0.40437759638058
 Sym=      9.1
 Ene=       0.3289
 Spin= Alpha
 Occup=    0.000000
1 0.000000569427368
2 0.000000201108084
3 -0.000021435025691
4 0.071224552110085
5 0.23329703171970
6 0.16706913820969
7 0.36861238830513
8 1.20739811398323
9 0.86464449478914
10 -0.019364968519009
11 -0.49994775659677
12 0.074895910311755
13 1.93367971439261
14 -0.051099726172871
15 -1.31928636801727
16 -0.004432529049679
17 -0.11441796902738
 Sym=     10.1
 Ene=       0.7355
 Spin= Alpha
 Occup=    0.000000
1 0.000000364312525
2 0.000001981969885
3 -0.000014161842086
4 -0.28490790426193
5 -0.49219817682631
6 -0.50061447342157
7 0.55174095154019
8 0.95317827631834
9 0.96947229625120
10 -0.20772082020953
11 -0.076185536805329
12 0.54194503877836
13 0.19878634039500
14 -0.25121771412115
15 -0.092146343526642
16 -0.083004545846803
17 -0.030440881454951
 Sym=     11.1
 Ene=       0.7355
 Spin= Alpha
 Occup=    0.000000
1 0.000000128005940
2 0.000002747463801
3 -0.000007086059837
4 -0.62068599567374
5 0.42905948520107
6 -0.068604363692578
7 1.20198857954875
8 -0.83090074958769
9 0.13285576453562
10 -0.45252844711580
11 -0.16597610959550
12 0.030219141240471
13 0.011080862055120
14 0.44778175995006
15 0.16424149542421
16 -0.025468916624531
17 -0.009343834002265
 Sym=     12.1
 Ene=       0.7355
 Spin= Alpha
 Occup=    0.000000
1 0.000000597721468
2 0.000000118059723
3 -0.000020011640626
4 0.32806569302781
5 0.38431517963147
6 -0.56456216275867
7 -0.63531664157060
8 -0.74425201293922
9 1.09330725311857
10 0.23918235051034
11 0.087737700437675
12 0.10257790494912
13 0.037631290361316
14 0.20376658686806
15 0.074752379837874
16 -0.54552798325419
17 -0.20009548938267
 Sym=     13.1
 Ene=       1.2457
 Spin= Alpha
 Occup=    0.000000
1 0.000015285286430
2 -0.000149336082973
3 0.000193492514548
4 0.57482394612386
5 0.29935376403344
6 -0.64591965672807
7 -0.65999067790651
8 -0.34370583544735
9 0.74161939369267
10 -0.64956906715902
11 0.99655711278769
12 -0.18792717802036
13 0.28835538494728
14 -0.13680152909998
15 0.20992185956870
16 0.97465930254739
17 -1.49515499414172
 Sym=     14.1
 Ene=       1.2457
 Spin= Alpha
 Occup=    0.000000
1 -0.000007200556601
2 0.000101818775422
3 -0.000159534675540
4 0.68722482938230
5 -0.45008715252104
6 0.40298653293405
7 -0.78904490624540
8 0.51677197202526
9 -0.46269299398628
10 -0.77673996890201
11 1.19158023229040
12 0.35883780490215
13 -0.55050634487978
14 0.75958742983643
15 -1.16529282243673
16 -0.34186196999819
17 0.52443190176277
 Sym=     15.1
 Ene=       1.2457
 Spin= Alpha
 Occup=    0.000000
1 -0.000006281268421
2 0.000075242849349
3 -0.000109663739249
4 0.18588317355279
5 0.73828587779555
6 0.50758495868949
7 -0.21342337233275
8 -0.84766879512082
9 -0.58278801189375
10 -0.21012082885183
11 0.32232717499066
12 0.95143694387860
13 -1.45961280588134
14 -0.68827551661308
15 1.05586038309984
16 -0.053191982812145
17 0.081584309140754
 Sym=     16.1
 Ene=       1.2737
 Spin= Alpha
 Occup=    0.000000
1 -0.099431350654117
2 1.21957993533880
3 -1.77998818881982
4 0.000018399561920
5 0.000031929464465
6 -0.000160329743921
7 -0.000017801058028
8 -0.000035160933702
9 0.000176559164665
10 -0.60322117936365
11 0.63360389688607
12 -0.60331734122878
13 0.63375208804347
14 -0.60323589447525
15 0.63363033804467
16 -0.60302788993745
17 0.63331940973666
 Sym=     17.1
 Ene=       1.3327
 Spin= Alpha
 Occup=    0.000000
1 -0.090174018404112
2 -2.07592403597040
3 5.24808438781616
4 0.000007397928714
5 0.000001601104645
6 -0.000008025120809
7 0.000004529976084
8 0.000002457257281
9 -0.000012347065214
10 -0.40368158612780
11 -0.95038949739813
12 -0.40366729625466
13 -0.95041161771874
14 -0.40366461037040
15 -0.95040650376464
16 -0.40365773576566
17 -0.95039345898734
