[Molden Format]
[Molpro variables]
_NUMVAR=  675.0000000000000    
_PATCHLEVEL=  675.0000000000000    
_EV2006= 0.3674930886769165E-01
_EV= 0.3674932534394180E-01
_KJOULE= 0.3808798324128737E-03
_KJOULE/MOL= 0.3808798324128737E-03
_CM= 0.4556335267302901E-05
_CM-1= 0.4556335267302901E-05
_KCAL= 0.1593601117815568E-02
_KCAL/MOL= 0.1593601117815568E-02
_KELVIN2006= 0.3166828861084835E-05
_KELVIN= 0.3166814820820034E-05
_HERTZ2006= 0.1519829850815779E-15
_HERTZ= 0.1519829846011223E-15
_HZ2006= 0.1519829850815779E-15
_HZ= 0.1519829846011223E-15
_TOA2006= 0.5291772490000000    
_TOA= 0.5291772090000000    
_TOANG2006= 0.5291772490000000    
_TOANG= 0.5291772090000000    
_TORAD= 0.1745329251994330E-01
_TOCM=  219474.6306700000    
_TODEBYE=  2.541580000000000    
_TOEV2006=  27.21139610000000    
_TOEV=  27.21138390000000    
_TOHERTZ2006=  6579683899900000.    
_TOHERTZ=  6579683920700000.    
_TOHZ2006=  6579683899900000.    
_TOHZ=  6579683920700000.    
_TOK2006=  315773.3000000000    
_TOK=  315774.7000000000    
_TOKCAL=  627.5096000000000    
_TOKELVIN2006=  315773.3000000000    
_TOKELVIN=  315774.7000000000    
_TOKJ=  2625.500000000000    
_TOKJOULE=  2625.500000000000    
_ANG2006=  1.889725988578923    
_ANG=  1.889726131421507    
_ANGSTROM2006=  1.889725988578923    
_ANGSTROM=  1.889726131421507    
_IGNORE_UNDEF=  2.000000000000000    
_STRICTCHECK=  0.000000000000000    
_SEW_ONEEL=  0.000000000000000    
_CPPDONE=FALSE
_DKROLL_DONE=  0.000000000000000    
_FOCKDONE=TRUE
_GRADONE=FALSE
_HESSDONE=FALSE
_INTDONE=TRUE
_SCFDONE=TRUE
_MODUL_CUDA=FALSE
_MODUL_SLATER=FALSE
_MODUL_MRCC=FALSE
_MRCC_EXEC=
_FITC_AO_SAVED=FALSE
_FITC_MO_SAVED=FALSE
_SHARED_FS=TRUE
_LSTYP=SEWARD
_INTYP=INTS
_GEOMTYP=ZMAT
_GRADTYP=ALASKA
_DIRECT=FALSE
_DKROLL=FALSE
_DKHO=FALSE
_DKHP=FALSE
_SYNCM=  0.000000000000000    
_DFTNAME=  0.000000000000000    
_DFTFUNC=  0.000000000000000    
_BASIS=SVP
_BASISSETS=
_ZSIGNX=
_ZSIGNY=
_ZSIGNZ=
_ZCENTRE=
_ZSYMEL=
_ZPLANE=
_ZUNIT=
_ZORIENT=  1.000000000000000    
_CHARGE=  1.000000000000000    
_SCFCHARGE=  1.000000000000000    
_MCCHARGE=  1.000000000000000    
_CICHARGE=  1.000000000000000    
_CCCHARGE=  1.000000000000000    
_NELEC=  10.00000000000000    
!NELEC=  10.00000000000000    
_SCFNELEC=  10.00000000000000    
_MCNELEC=  10.00000000000000    
_CINELEC=  10.00000000000000    
_CCNELEC=  10.00000000000000    
_SPIN=  10.00000000000000    
!SPIN=  0.000000000000000    
_SCFSPIN=  0.000000000000000    
_MCSPIN=  0.000000000000000    
_CISPIN=  0.000000000000000    
_CCSPIN=  0.000000000000000    
_STATE=  0.000000000000000    
_SCFSTATE=  0.000000000000000    
_MCSTATE=  0.000000000000000    
_CISTATE=  0.000000000000000    
_SYMMETRY=  0.000000000000000    
!SYMMETRY=  0.000000000000000    
_SCFSYMMETRY=  0.000000000000000    
_MCSYMMETRY=  0.000000000000000    
_CISYMMETRY=  0.000000000000000    
_CCSYMMETRY=  0.000000000000000    
_SCFSYMM=  0.000000000000000    
_MCSYMM=  0.000000000000000    
_CISYMM=  0.000000000000000    
_CCSYMM=  0.000000000000000    
_SCFSYM=  0.000000000000000    
_MCSYM=  0.000000000000000    
_CISYM=  0.000000000000000    
_CCSYM=  0.000000000000000    
_WEIGHT=  0.000000000000000    
_MCWEIGHT=  0.000000000000000    
_LQUANT=  0.000000000000000    
_MCLQUANT=  0.000000000000000    
_OPTCONV=  0.000000000000000    
_QSDSTEP=  0.000000000000000    
_QSDIRC=  0.000000000000000    
_PROGRAM=HF-SCF
_CPUSTEP= 0.3000000000000000E-01
_SYSSTEP= 0.1000000000000000E-01
_WALLSTEP= 0.3000000000000000E-01
!PERT= 0.3000000000000000E-01
!DFMP2= 0.3000000000000000E-01
!DFSCF=  0.000000000000000    
!DFHFENERG=  0.000000000000000    
!SCSGRD=  0.000000000000000    
_ATCHARGE=  0.000000000000000    
_BASINP=  610.0000000000000    
_CARTESIAN=  610.0000000000000    
_CFIT=  610.0000000000000    
_CFIT_FRED=  610.0000000000000    
_CFIT_FRED_THR=  610.0000000000000    
_CHII2=  610.0000000000000    
_CHIRS=  610.0000000000000    
_COEFF=  610.0000000000000    
_CPU2IDX_CFIT=  610.0000000000000    
_CPU3IDX_CFIT=  610.0000000000000    
_CPUASMBL_CFIT=  610.0000000000000    
_CPUBLAS1=  610.0000000000000    
_CPUBLAS2=  610.0000000000000    
_CPUBLAS3=  610.0000000000000    
_CPUINT_DTRAF=  610.0000000000000    
_CPUSOLVE_CFIT=  610.0000000000000    
_CPUTOT= 0.2000000000000000    
_CPUTR1_CFIT= 0.2000000000000000    
_CPUTR2_CFIT= 0.2000000000000000    
_CPUINV_CFIT= 0.2000000000000000    
_CPUFIT_CFIT= 0.2000000000000000    
_CPUTRANS_CFIT= 0.2000000000000000    
_CPUSCREEN_CFIT= 0.2000000000000000    
_CPUTRANS_DTRAF= 0.2000000000000000    
_CPUTRA_DTRAF= 0.2000000000000000    
_CPUTRIPL= 0.2000000000000000    
_SYSTRIPL= 0.2000000000000000    
_WALLTRIPL= 0.2000000000000000    
_CPUCCSD= 0.2000000000000000    
_SYSCCSD= 0.2000000000000000    
_WALLCCSD= 0.2000000000000000    
_CPUSORT= 0.2000000000000002E-01
_SYSSORT=  0.000000000000000    
_WALLSORT= 0.1999998092651367E-01
_CPUF12= 0.1999998092651367E-01
_SYSF12= 0.1999998092651367E-01
_WALLF12= 0.1999998092651367E-01
_CPUF12B= 0.1999998092651367E-01
_SYSF12B= 0.1999998092651367E-01
_WALLF12B= 0.1999998092651367E-01
_CPUTRANS= 0.1999998092651367E-01
_SYSTRANS= 0.1999998092651367E-01
_WALLTRANS= 0.1999998092651367E-01
_DALTON= 0.1999998092651367E-01
_DARW= 0.1999998092651367E-01
_DECAY= 0.1999998092651367E-01
_DELE_CFIT= 0.1999998092651367E-01
_DELG_CFIT= 0.1999998092651367E-01
_DELTA= 0.1999998092651367E-01
_DFTEXFAC=  1.000000000000000    
_DFTFAC=  1.000000000000000    
_DFTFUN=  1.000000000000000    
_DFTFUNS=  1.000000000000000    
_DMEX=  1.000000000000000    
_DMEY=  1.000000000000000    
_DMEZ=  1.000000000000000    
_DMNX=  1.000000000000000    
_DMNY=  1.000000000000000    
_DMNZ=  1.000000000000000    
_DMSCF=  1.000000000000000    
_DMSCF_Efield=  1.000000000000000    
_DMSCF_I=  1.000000000000000    
_DMSCF_J=  1.000000000000000    
_DMSCF_K=  1.000000000000000    
_DMSCF_N1=  1.000000000000000    
_DMSCF_N2=  1.000000000000000    
_DMSCF_NUC=  1.000000000000000    
_DMSCF_T=  1.000000000000000    
_DMSCF_V=  1.000000000000000    
_DMX= 0.1065508751452171E-05
_DMY= 0.6044585880715658E-06
_DMZ=-0.3034851308107624E-05
_DMZCOR=-0.3034851308107624E-05
_DM_RHO1=-0.3034851308107624E-05
_DM_RVAL=-0.3034851308107624E-05
_DUMMYATOMS=-0.3034851308107624E-05
_FREQUENCIES=-0.3034851308107624E-05
_EDISP=-0.3034851308107624E-05
_EEDISP=-0.3034851308107624E-05
_EINTRA=-0.3034851308107624E-05
_EINTRA_R12=-0.3034851308107624E-05
_EINTER_R12=-0.3034851308107624E-05
_EIONIC=-0.3034851308107624E-05
_EMP2=-0.3034851308107624E-05
_EMP2_SING=-0.3034851308107624E-05
_EMP2_TRIP=-0.3034851308107624E-05
_EMP2_SINGLES=-0.3034851308107624E-05
_EMP2_SINGLES_D=-0.3034851308107624E-05
_EMP2_SCS=-0.3034851308107624E-05
_EMP2_STRONG=-0.3034851308107624E-05
_EMP2_CLOSE=-0.3034851308107624E-05
_EMP2_WEAK=-0.3034851308107624E-05
_EMP2_DIST=-0.3034851308107624E-05
_ECSING=-0.3034851308107624E-05
_ECTRIP=-0.3034851308107624E-05
_ECSINGLES=-0.3034851308107624E-05
_EF12=-0.3034851308107624E-05
_EF12_SING=-0.3034851308107624E-05
_EF12_TRIP=-0.3034851308107624E-05
_ECSING_F12=-0.3034851308107624E-05
_ECTRIP_F12=-0.3034851308107624E-05
_EF12_RHFRELAX=-0.3034851308107624E-05
_EF12_RHFRELAX_C=-0.3034851308107624E-05
_EF12_CONVSUPPRS=-0.3034851308107624E-05
_EF12_CONVSUPPRT=-0.3034851308107624E-05
_EF12_SINGLES=-0.3034851308107624E-05
_EF12_SINGLES_C=-0.3034851308107624E-05
_EF12_SCS=-0.3034851308107624E-05
_EF12_STRONG=-0.3034851308107624E-05
_EF12_CLOSE=-0.3034851308107624E-05
_EF12_WEAK=-0.3034851308107624E-05
_EF12_DIST=-0.3034851308107624E-05
_EF12S=-0.3034851308107624E-05
_EF12S_SING=-0.3034851308107624E-05
_EF12S_TRIP=-0.3034851308107624E-05
_EF12S_SCS=-0.3034851308107624E-05
_EF12S_STRONG=-0.3034851308107624E-05
_EF12S_CLOSE=-0.3034851308107624E-05
_EF12S_WEAK=-0.3034851308107624E-05
_EF12S_DIST=-0.3034851308107624E-05
_EF12D=-0.3034851308107624E-05
_EF12D_SING=-0.3034851308107624E-05
_EF12D_TRIP=-0.3034851308107624E-05
_EF12D_SCS=-0.3034851308107624E-05
_EF12D_STRONG=-0.3034851308107624E-05
_EF12D_CLOSE=-0.3034851308107624E-05
_EF12D_WEAK=-0.3034851308107624E-05
_EF12D_DIST=-0.3034851308107624E-05
_EF12F=-0.3034851308107624E-05
_EF12F_SING=-0.3034851308107624E-05
_EF12F_TRIP=-0.3034851308107624E-05
_EF12F_SCS=-0.3034851308107624E-05
_EF12F_STRONG=-0.3034851308107624E-05
_EF12F_CLOSE=-0.3034851308107624E-05
_EF12F_WEAK=-0.3034851308107624E-05
_EF12F_DIST=-0.3034851308107624E-05
_EMP2R12_2AD=-0.3034851308107624E-05
_EMP2R12_2A=-0.3034851308107624E-05
_EMP2R12_2AP=-0.3034851308107624E-05
_EMP2R12_2SAD=-0.3034851308107624E-05
_EMP2R12_2SA=-0.3034851308107624E-05
_EMP2R12_2SAP=-0.3034851308107624E-05
_EMP2R12_2B=-0.3034851308107624E-05
_EMP2_R12=-0.3034851308107624E-05
_EMP2_R12_A=-0.3034851308107624E-05
_EMP2_R12_AP=-0.3034851308107624E-05
_EMP2_R12_AD=-0.3034851308107624E-05
_EMP2_R12_2A=-0.3034851308107624E-05
_EMP2_R12_2SA=-0.3034851308107624E-05
_EMP2_R12_2SAP=-0.3034851308107624E-05
_EMP2_R12_2SAD=-0.3034851308107624E-05
_EMP2_R12_2AP=-0.3034851308107624E-05
_EMP2_R12_DIAG=-0.3034851308107624E-05
_EMP2_R12_STRONG=-0.3034851308107624E-05
_EMP2_R12_CLOSE=-0.3034851308107624E-05
_EMP2_R12_WEAK=-0.3034851308107624E-05
_EMP2_R12_DIST=-0.3034851308107624E-05
_EMP2_R12_SING=-0.3034851308107624E-05
_EMP2_R12_TRIP=-0.3034851308107624E-05
_EMP2_R12_SCS=-0.3034851308107624E-05
_EMP2R=-0.3034851308107624E-05
_EMP3=-0.3034851308107624E-05
_EMP3R=-0.3034851308107624E-05
_EMP4=-0.3034851308107624E-05
_ENERGC=-0.3034851308107624E-05
_ENERGCL=-0.3034851308107624E-05
_ENERG_CC=-0.3034851308107624E-05
_ENERG_CV=-0.3034851308107624E-05
_ENERG_VV=-0.3034851308107624E-05
_ENERGD=-0.3034851308107624E-05
_ENERGD0=-0.3034851308107624E-05
_ENERGD1=-0.3034851308107624E-05
_ENERGD2=-0.3034851308107624E-05
_ENERGD3=-0.3034851308107624E-05
_ENERGD4=-0.3034851308107624E-05
_ENERGP=-0.3034851308107624E-05
_ENERGP0=-0.3034851308107624E-05
_ENERGP1=-0.3034851308107624E-05
_ENERGP2=-0.3034851308107624E-05
_ENERGP3=-0.3034851308107624E-05
_ENERGP4=-0.3034851308107624E-05
_ENERGR=-0.3034851308107624E-05
_ENERGRR=-0.3034851308107624E-05
_ENERGS=-0.3034851308107624E-05
_ENERGT=-0.3034851308107624E-05
_ENERGU=-0.3034851308107624E-05
_ENERGW=-0.3034851308107624E-05
_ENERGY= -40.16808010028026    
_ENERGY_MP= -40.16808010028026    
_ECBS= -40.16808010028026    
_ECBSD= -40.16808010028026    
_ENUC=  13.68652296103505    
_EPDIST=  13.68652296103505    
_EPDIST_R12=  13.68652296103505    
_EPSUM=  13.68652296103505    
_EPSUM_R12=  13.68652296103505    
_EPS1= -11.20829916866010    
_EPS2= -11.20829916866010    
_EPS3= -11.20829916866010    
_EPS4= -11.20829916866010    
_EPS5= -11.20829916866010    
_EPS6= -11.20829916866010    
_EPS7= -11.20829916866010    
_EPS8= -11.20829916866010    
_EREL= -11.20829916866010    
_FLOPBLAS1= -11.20829916866010    
_FLOPBLAS2= -11.20829916866010    
_FLOPBLAS3= -11.20829916866010    
_FLOPDGM= -11.20829916866010    
_FLOPDGV= -11.20829916866010    
_FLOPMXM= -11.20829916866010    
_FLOPMXV= -11.20829916866010    
_FREQSTEP= -11.20829916866010    
!RS2GRSTATE= -11.20829916866010    
!RS2GRSYM= -11.20829916866010    
_GRADENERG= -11.20829916866010    
_GRADEXFAC=  9999.000000000000    
_GRADMETHOD=  1.000000000000000    
_GRADRECORD=  1.000000000000000    
_VIRIAL=  1.000000000000000    
_GRADX=  1.000000000000000    
_GRADY=  1.000000000000000    
_GRADZ=  1.000000000000000    
_GRADVAR=  1.000000000000000    
_GRID=  1.000000000000000    
_GRID_FREEZE=  1.000000000000000    
!GRID_FREEZE= -1.000000000000000    
!GRIDREC= -1.000000000000000    
_GRID_WEIGHT_CUT= -1.000000000000000    
_GRID_BLOCKSIZE= -1.000000000000000    
_GRID_SPARSITY= -1.000000000000000    
_GRID_RMAX= -1.000000000000000    
_GTOTAL= -1.000000000000000    
_HDIA= -1.000000000000000    
_HDIACI= -1.000000000000000    
_HEAT= -1.000000000000000    
_HTOTAL= -1.000000000000000    
_INCR_CORR= -1.000000000000000    
_INCR_COUNT= -1.000000000000000    
_INCR_READY= -1.000000000000000    
_ISCHI= -1.000000000000000    
_ITERATIONS=  8.000000000000000    
_KFIT=  8.000000000000000    
_LASTNELEC=  10.00000000000000    
_LASTSPIN=  0.000000000000000    
_LASTSYM=  1.000000000000000    
_LL=  1.000000000000000    
_MASSV=  1.000000000000000    
_MIN_ITER=  1.000000000000000    
_MIXANG=  1.000000000000000    
_MIXANGCI=  1.000000000000000    
_MPP_PROG=  0.000000000000000    
_MSENERGY=  0.000000000000000    
_NACME=  0.000000000000000    
_NBAS_CFIT=  0.000000000000000    
_NEWREC=  0.000000000000000    
_NGRID=  0.000000000000000    
_NPROC_MPP=  1.000000000000000    
_NPROC_SMP=  1.000000000000000    
_NUMSTEP=  0.000000000000000    
_OPNUC=  0.000000000000000    
_OPTCONVMX=  0.000000000000000    
_OPTCONVRMS=  0.000000000000000    
_OPTGRAD=  0.000000000000000    
_OPTGRADMX=  0.000000000000000    
_OPTGRADRMS=  0.000000000000000    
_OPTRMSMAX=  0.000000000000000    
_OPTSTEP=  0.000000000000000    
_ORBITAL=  2100.200000000000    
_PAOINT_CFIT=  2100.200000000000    
_PENALTY=  2100.200000000000    
_PH1INT_CFIT=  2100.200000000000    
_PH1VEC_CFIT=  2100.200000000000    
_PH2INT_CFIT=  2100.200000000000    
_PHASE=  2100.200000000000    
_PI=  3.141592653589793    
_PMOINT_CFIT=  3.141592653589793    
_PMOVEC_CFIT=  3.141592653589793    
_POISSON_ECORR=  3.141592653589793    
_POISSON_ERROR=  3.141592653589793    
_POLXX=  3.141592653589793    
_POLXY=  3.141592653589793    
_POLXZ=  3.141592653589793    
_POLYY=  3.141592653589793    
_POLYZ=  3.141592653589793    
_POLZZ=  3.141592653589793    
_POLYX=  3.141592653589793    
_POLZX=  3.141592653589793    
_POLZY=  3.141592653589793    
_POVINT_CFIT=  3.141592653589793    
_ROOT=  3.141592653589793    
_RPDIST=  3.141592653589793    
_RPMIN=  3.141592653589793    
_RPMAX=  3.141592653589793    
_EPCON=  3.141592653589793    
_ECDIAG=  3.141592653589793    
_EPDIAG=  3.141592653589793    
!MCACT=  3.141592653589793    
!MCCLOSED=  3.141592653589793    
!MCFREEZE=  3.141592653589793    
!MCMS2=  3.141592653589793    
!MCNEL=  3.141592653589793    
!MCNSTSYM=  3.141592653589793    
!MCSTATE=  3.141592653589793    
!MCSYM=  3.141592653589793    
!MCWEIGHT=  3.141592653589793    
_SEIG_MIN= 0.1313772115156241E-01
_SEWPROP=TRUE
_SMAT=TRUE
_SMATCI=TRUE
_SSQUARED=TRUE
_STATUS=  1.000000000000000    
_SYSBLAS1=  1.000000000000000    
_SYSBLAS2=  1.000000000000000    
_SYSBLAS3=  1.000000000000000    
_SYSTEM_RC=  1.000000000000000    
_SYSTOT= 0.2000000000000000E-01
_T1DIAG= 0.2000000000000000E-01
_D1DIAG= 0.2000000000000000E-01
_TASK= 0.2000000000000000E-01
_TROV= 0.2000000000000000E-01
_HMAT= 0.2000000000000000E-01
_UMAT= 0.2000000000000000E-01
_UMATCI= 0.2000000000000000E-01
_VERSION=  2010001.000000000    
_WALLBLAS1=  2010001.000000000    
_WALLBLAS2=  2010001.000000000    
_WALLBLAS3=  2010001.000000000    
_WALLTOT= 0.2100000000000000    
_ZPE= 0.2100000000000000    
!DFBASIS_COUL= 0.2100000000000000    
!DFBASIS_EXCH= 0.2100000000000000    
!DFBASIS_MP2= 0.2100000000000000    
!DFBASIS_F12K= 0.2100000000000000    
!DFBASIS_CCSD= 0.2100000000000000    
!RIBASIS_MP2= 0.2100000000000000    
!RIBASIS_EXCH= 0.2100000000000000    
_DATE=07-Aug-12
_LASTORB=RHF
_MACHINE=Darwin-11.4.2/Shanes-MacBook-Pro.local(x86_64) 64 bit serial version
_METHODC=
_METHODT=
_OUTPUT=/Users/smparker/Research/methane/methane.xml
_PGROUP=C1
_SEMI=
_TIME=01:41:34
_ANSATZ=
_LIBMOL=/Users/smparker/programs/Molpro/bin/../lib/
_VDIAG=
_UDIAG=
!AOINTADDSC=
_TRANSFORM_FORCE=
_SOLVE_ITER=
_VSCF_FREQ=
_VMCSCF_FREQ=
_VCI_FREQ=
_VMP2_FREQ=
_VSCF_INTENS=
_VMCSCF_INTENS=
_VCI_INTENS=
_VMP2_INTENS=
!SURFREC=  0.000000000000000    
!POLYREC=  0.000000000000000    
!DIPREC=  0.000000000000000    
!VSCFREC=  0.000000000000000    
!VCIREC=  0.000000000000000    
!PVCIREC=  0.000000000000000    
!VMP2REC=  0.000000000000000    
!VMCSCFREC=  0.000000000000000    
!GAREC=  0.000000000000000    
!SCFORB=  21002.00000000000    
!MCORB=  21002.00000000000    
!CIOCC=  21002.00000000000    
!CICORE=  21002.00000000000    
!CICLOS=  21002.00000000000    
!UNO_OCC=  21002.00000000000    
!UNO_CLOSED=  21002.00000000000    
!CINSTSYM=  21002.00000000000    
!CIISTSYM=  21002.00000000000    
!CIISTMS2=  21002.00000000000    
!CIISTNEL=  21002.00000000000    
!CIMS2=  21002.00000000000    
!NEWMOL= -1.000000000000000    
!NEWSYM= -1.000000000000000    
!NEWORIENT= -1.000000000000000    
_SLFILES=slscratch
_NGSSTO=  9.000000000000000    
_SIN=SIN
_COS=COS
_TAN=TAN
_ACOS=ACOS
_ASIN=ASIN
_ATAN=ATAN
_COSH=COSH
_SINH=SINH
_TANH=TANH
_ABS=ABS
_MOD=MOD
_ERF=ERF
_REFC=REFC
_ERFC=ERFC
_HYPOT=HYPOT
_J0=J0
_J1=J1
_JN=JN
_GAMMA=GAMMA
_LGAMMA=LGAMMA
_Y0=Y0
_Y1=Y1
_YN=YN
_EXP=EXP
_LOG=LOG
_LOG10=LOG10
_SQRT=SQRT
_INT=INT
_NINT=NINT
_MAX=MAX
_MIN=MIN
_COSMO=  0.000000000000000    
_COSMOIT=  0.000000000000000    
_COSMOES=  0.000000000000000    
_COSMOEDS=  0.000000000000000    
_COSMOEC=  0.000000000000000    
_COSMOEDCORR=  0.000000000000000    
_FEPSI=  1.000000000000000    
_SL_IsMM=  0.000000000000000    
_SL_NSYM=  0.000000000000000    
_SL_System_BitSw=  0.000000000000000    
_SL_Unique_atoms=  0.000000000000000    
_SL_Last_energy=  0.000000000000000    
_SL_GRAD=  0.000000000000000    
_SL_MAXUPD_Hess=  5.000000000000000    
_SL_N_PRINT_COD=  5.000000000000000    
_SL_PRINT_CODES=  0.000000000000000    
_SL_BasType=  0.000000000000000    
_SL_Energy_Pred=  0.000000000000000    
_SL_New_Coords=  0.000000000000000    
_SL_Total_Nuclea=  0.000000000000000    
_SL_Highest_Mltp=  0.000000000000000    
_SL_Ref_Geom=  0.000000000000000    
_CONFIG=  0.000000000000000    
_OCC=  0.000000000000000    
_CORE=  0.000000000000000    
_CLOSED=  0.000000000000000    
_SCFOCC=  0.000000000000000    
_SCFCLOSED=  0.000000000000000    
_SCFCORE=  0.000000000000000    
_MCOCC=  0.000000000000000    
_MCCLOSED=  0.000000000000000    
_MCFROZEN=  0.000000000000000    
_MCCORE=  0.000000000000000    
_CIOCC=  0.000000000000000    
_CICLOSED=  0.000000000000000    
_CICORE=  0.000000000000000    
_CCOCC=  0.000000000000000    
_CCCLOSED=  0.000000000000000    
_CCCORE=  0.000000000000000    
_SRXC=  0.000000000000000    
_SRC=  0.000000000000000    
_SRX=  0.000000000000000    
_SRH=  0.000000000000000    
_E_EXCHANGE=  0.000000000000000    
!LATTICE= -1.000000000000000    
!NEWLATTICE=  0.000000000000000    
!LATGRAD_VAR=FALSE
!SEW_LATTICE=  1.000000000000000    
_LATGRADX=  1.000000000000000    
_LATGRADY=  1.000000000000000    
_LATGRADZ=  1.000000000000000    
!SCALTABINIT=  1.000000000000000    
!LOCAL=  0.000000000000000    
!SAVEOCC=  0.000000000000000    
!SAVEDOM= -1.000000000000000    
!RESTDOM= -1.000000000000000    
!SAVEDOM_HF= -1.000000000000000    
!RESTDOM_HF= -1.000000000000000    
!HESSREC=  0.000000000000000    
!FREQREC=  0.000000000000000    
!NMODREC=  0.000000000000000    
!GTASKS=  0.000000000000000    
!HTASKS=  0.000000000000000    
!THRCHG= 0.1000000000000000    
!DEBUG= -1.000000000000000    
!CFIT_CPHF=  0.000000000000000    
!RDOMAUX_CPHF=  3.000000000000000    
!THRAO_CPHF= 0.1000000000000000E-09
!THRMO_CPHF= 0.1000000000000000E-08
!THROV_CPHF= 0.1000000000000000E-11
!THRSW_CPHF= 0.1000000000000000E-09
!THRPROD_CPHF= 0.1000000000000000E-08
!THRAOPR_CPHF= 0.1000000000000000E-11
!CFIT_SCFGRD=  0.000000000000000    
!RDOMAUX_SCFGRD=  5.000000000000000    
!THRAO_SCFGRD= 0.1000000000000000E-09
!THRMO_SCFGRD= 0.1000000000000000E-08
!THROV_SCFGRD= 0.1000000000000000E-11
!THRSW_SCFGRD= 0.1000000000000000E-09
!THRPROD_SCFGRD= 0.1000000000000000E-08
!THRAOPR_SCFGRD= 0.1000000000000000E-11
!LOCFIT_SCF=  0.000000000000000    
!LOCFIT_MP2= -1.000000000000000    
_RIDOM=  0.000000000000000    
_FCI_METHOD=  0.000000000000000    
!CC2_METHOD=  0.000000000000000    
_BASIS2006=FALSE
_SVDDEL= -1.000000000000000    
_SVDDELA= -1.000000000000000    
_SVDDELP= -1.000000000000000    
_SVDDELF= -1.000000000000000    
_SVDDELS= -1.000000000000000    
_SVDDEL_ABS= -1.000000000000000    
_SVDDELA_ABS= -1.000000000000000    
_SVDDELP_ABS= -1.000000000000000    
_SVDDELF_ABS= -1.000000000000000    
_SVDDELS_ABS= -1.000000000000000    
_MAXBASIS=  0.000000000000000    
!OPT_CONICAL=  0.000000000000000    
!CLEARSP_JGRID=  0.000000000000000    
_SHLDTENSOR=  0.000000000000000    
_OMEGAF_S=  0.000000000000000    
_OMEGAF_T=  0.000000000000000    
_RE=  0.000000000000000    
_BE=  0.000000000000000    
_AE=  0.000000000000000    
_WE=  0.000000000000000    
_WEXE=  0.000000000000000    
_WEYE=  0.000000000000000    
_METHOD=  0.000000000000000    
_C0=  0.000000000000000    
_C0R=  0.000000000000000    
GX1= -1.591700000000000    
GY1=  1.172830000000000    
GZ1=  0.000000000000000    
GX2=-0.5217000000000001    
GY2=  1.172830000000000    
GZ2=  0.000000000000000    
GX3= -1.948360000000000    
GY3= 0.6248100000000003    
GZ3=-0.8469700000000000    
GX4= -1.948360000000000    
GY4=  2.180340000000000    
GZ4=-0.5112000000000000E-01
GX5= -1.948370000000000    
GY5= 0.7133400000000000    
GZ5= 0.8980900000000005    
[Atoms] Angs
C     1    6        -1.5917000000        1.1728300000        0.0000000000
H     2    1        -0.5217000000        1.1728300000        0.0000000000
H     3    1        -1.9483600000        0.6248100000       -0.8469700000
H     4    1        -1.9483600000        2.1803400000       -0.0511200000
H     5    1        -1.9483700000        0.7133400000        0.8980900000
[GTO]
  1 0
 s    5  1.00
  0.1238401694D+04  0.5517365048D-02
  0.1862900499D+03  0.4108882856D-01
  0.4225117635D+02  0.1822538213D+00
  0.1167655793D+02  0.4682845944D+00
  0.3593050648D+01  0.4457581734D+00
 s    1  1.00
  0.4024514736D+00  0.1000000000D+01
 s    1  1.00
  0.1309018267D+00  0.1000000000D+01
 p    3  1.00
  0.9468097062D+01  0.5688833201D-01
  0.2010354514D+01  0.3129405934D+00
  0.5477100471D+00  0.7606501651D+00
 p    1  1.00
  0.1526861379D+00  0.1000000000D+01
 d    1  1.00
  0.8000000000D+00  0.1000000000D+01
  
  2 0
 s    3  1.00
  0.1301070100D+02  0.3348548481D-01
  0.1962257200D+01  0.2347218709D+00
  0.4445379600D+00  0.8137702853D+00
 s    1  1.00
  0.1219496200D+00  0.1000000000D+01
 p    1  1.00
  0.8000000000D+00  0.1000000000D+01
  
  3 0
 s    3  1.00
  0.1301070100D+02  0.3348548481D-01
  0.1962257200D+01  0.2347218709D+00
  0.4445379600D+00  0.8137702853D+00
 s    1  1.00
  0.1219496200D+00  0.1000000000D+01
 p    1  1.00
  0.8000000000D+00  0.1000000000D+01
  
  4 0
 s    3  1.00
  0.1301070100D+02  0.3348548481D-01
  0.1962257200D+01  0.2347218709D+00
  0.4445379600D+00  0.8137702853D+00
 s    1  1.00
  0.1219496200D+00  0.1000000000D+01
 p    1  1.00
  0.8000000000D+00  0.1000000000D+01
  
  5 0
 s    3  1.00
  0.1301070100D+02  0.3348548481D-01
  0.1962257200D+01  0.2347218709D+00
  0.4445379600D+00  0.8137702853D+00
 s    1  1.00
  0.1219496200D+00  0.1000000000D+01
 p    1  1.00
  0.8000000000D+00  0.1000000000D+01


[MO]
 Sym=      1.1
 Ene=     -11.2083
 Spin= Alpha
 Occup=    2.000000
1 0.99050118703707
2 0.038769603135132
3 -0.030956314400794
4 0.000000012311566
5 0.000000003105716
6 -0.000000015564871
7 -0.000000027295361
8 -0.000000013209023
9 0.000000066194470
10 -0.000000012890282
11 0.000000007960945
12 0.000000004929337
13 0.000000006418353
14 -0.000000006131214
15 -0.000000005756258
16 -0.001686108101415
17 0.005970957715091
18 0.001138597635744
19 -0.000000002098863
20 0.000000000225682
21 -0.001686127490832
22 0.005971020165344
23 -0.000379521148380
24 -0.000583142976106
25 -0.000901257364241
26 -0.001686124778363
27 0.005970983438635
28 -0.000379527768047
29 0.001072095616200
30 -0.000054397865493
31 -0.001686117845588
32 0.005970889524267
33 -0.000379544866713
34 -0.000488957069669
35 0.000955687896946
 Sym=      2.1
 Ene=      -0.9410
 Spin= Alpha
 Occup=    2.000000
1 -0.24575263259424
2 0.45337158548050
3 0.13850339313335
4 0.000000501238490
5 0.000000408654639
6 -0.000002051154118
7 -0.000000158674992
8 -0.000000066294464
9 0.000000332049084
10 -0.000000013910955
11 0.000000039645171
12 -0.000000025734216
13 0.000000003214568
14 0.000000051524435
15 0.000000076434582
16 0.18568078672724
17 0.030780869582090
18 -0.025127885912392
19 0.000000019644457
20 -0.000000088668875
21 0.18568244599877
22 0.030780986887771
23 0.008375957295832
24 0.012869908097335
25 0.019890451129235
26 0.18568123574916
27 0.030780754249948
28 0.008375884329644
29 -0.023660483198124
30 0.001200421412721
31 0.18567814401369
32 0.030780159139533
33 0.008375922626039
34 0.010790493037879
35 -0.021090470286501
 Sym=      3.1
 Ene=      -0.5503
 Spin= Alpha
 Occup=    2.000000
1 -0.000000140368526
2 0.000000377612126
3 0.000000857208120
4 0.073680982486108
5 0.37676003283369
6 0.19051466315592
7 0.033197155094364
8 0.16975037570698
9 0.085836795848594
10 0.004440100361898
11 0.012419073843469
12 -0.016859174205367
13 -0.013107902462016
14 -0.006628226897606
15 -0.012074118252460
16 0.067973914204391
17 0.026881465974480
18 -0.003375218817752
19 0.010164392590384
20 0.005139780441958
21 -0.33979946565894
22 -0.13437923212610
23 -0.006948587846431
24 -0.003566647901293
25 -0.016081640736516
26 0.29622373579183
27 0.11714655450554
28 0.009778189926814
29 -0.011842215478557
30 0.006256341576874
31 -0.024397621702891
32 -0.009648434019732
33 0.001346130040466
34 0.009337630572395
35 0.006755410617180
 Sym=      4.1
 Ene=      -0.5503
 Spin= Alpha
 Occup=    2.000000
1 -0.000000677512572
2 0.000001704760534
3 0.000003318379798
4 0.083123892006511
5 -0.20255361167280
6 0.36842147137526
7 0.037451679750464
8 -0.091261910259752
9 0.16599461263282
10 0.005009417837959
11 -0.013414131198189
12 0.008404713360230
13 0.007047107623290
14 -0.012817913761496
15 -0.016408208347420
16 0.076686732179187
17 0.030327302159283
18 -0.003807816053284
19 -0.005464550859041
20 0.009939376804149
21 -0.19889456310985
22 -0.078656380370668
23 -0.002988173909604
24 -0.013501768668751
25 -0.002482122566642
26 -0.21774990535374
27 -0.086113090739360
28 -0.003484049889639
29 0.010712230025274
30 0.009118600054621
31 0.33995958274281
32 0.13444337954761
33 0.011183309763406
34 0.006053700040236
35 -0.012573458414883
 Sym=      5.1
 Ene=      -0.5503
 Spin= Alpha
 Occup=    2.000000
1 0.000000611780734
2 -0.000001328446618
3 -0.000001521919733
4 0.41392493165917
5 -0.026389110140676
6 -0.10789765791991
7 0.18649662213407
8 -0.011889646474022
9 -0.048614270536058
10 0.024943443009043
11 -0.012886751140812
12 -0.012056691868231
13 0.000918056827803
14 0.003753887893266
15 0.005444338409914
16 0.38186296889836
17 0.15101521712502
18 -0.018961280224640
19 -0.000711932578792
20 -0.002910922315134
21 -0.036025946411712
22 -0.014247247719740
23 0.010219656526521
24 -0.002167709485056
25 -0.005160803490118
26 -0.14545490095631
27 -0.057523026232087
28 0.007341755505998
29 0.010093924473358
30 -0.003459146440188
31 -0.20038222949881
32 -0.079245144389469
33 0.005896961169968
34 -0.007501089382953
35 0.010358827254541
 Sym=      6.1
 Ene=       0.1886
 Spin= Alpha
 Occup=    0.000000
1 -0.12127098211548
2 0.068148481372088
3 3.40398315657120
4 0.000000491230495
5 -0.000000353634887
6 0.000001774011396
7 0.000005627634847
8 0.000000398087997
9 -0.000002001054796
10 0.000000016750155
11 0.000000025089541
12 -0.000000041839696
13 0.000000025722933
14 0.000000022495370
15 0.000000045299963
16 0.003625342027027
17 -1.19269191322257
18 0.003375830942935
19 -0.000000041697374
20 0.000000193565103
21 0.003626043975679
22 -1.19269240769784
23 -0.001125331733055
24 -0.001728982347868
25 -0.002671912543313
26 0.003625589424502
27 -1.19269052397834
28 -0.001125332546545
29 0.003178540565522
30 -0.000161085916388
31 0.003624427090712
32 -1.19268571562511
33 -0.001125349845614
34 -0.001449664245817
35 0.002833545028214
 Sym=      7.1
 Ene=       0.2773
 Spin= Alpha
 Occup=    0.000000
1 0.000000350188323
2 -0.000001538694229
3 0.000026245853155
4 0.12143337636358
5 0.13808668991810
6 -0.22100454082869
7 0.58995511361041
8 0.67086380093099
9 -1.07370046003286
10 0.000865262364598
11 0.000423795194042
12 -0.001289057558640
13 -0.000568140510651
14 0.000909185863087
15 0.001149244567225
16 -0.013720930406694
17 -0.97073338138687
18 0.006678805335694
19 -0.000131265818258
20 0.000210023201231
21 -0.007201509611090
22 -0.50952288014486
23 -0.001304083875973
24 -0.001957731041883
25 -0.002612860430258
26 -0.011310084434691
27 -0.80022736259545
28 -0.001982280792612
29 0.005142541665670
30 -0.000057629680974
31 0.032235679293688
32 2.28045335775570
33 0.005204910707558
34 0.006722754950896
35 -0.013186364862609
 Sym=      8.1
 Ene=       0.2773
 Spin= Alpha
 Occup=    0.000000
1 -0.000000242016417
2 0.000000447553679
3 0.000010192027100
4 -0.24107812293091
5 0.15211069892839
6 -0.037421860408667
7 -1.17122317688878
8 0.73899797670842
9 -0.18180603357420
10 -0.001718015316472
11 0.001645250735231
12 0.000072764581241
13 -0.000625871277071
14 0.000154126117755
15 0.000081020330834
16 0.027241609391808
17 1.92718293672903
18 -0.013259266307375
19 -0.000144613819094
20 0.000035552709708
21 -0.003624636229769
22 -0.25640277115458
23 -0.000369129017741
24 -0.001063652705705
25 -0.001384914737064
26 -0.025466352713798
27 -1.80165010338728
28 -0.003974131578762
29 0.011728759382420
30 -0.000566875967561
31 0.001849412830266
32 0.13085842342614
33 0.000534247701118
34 0.000248816015059
35 -0.000733212379713
 Sym=      9.1
 Ene=       0.2773
 Spin= Alpha
 Occup=    0.000000
1 0.000000008613392
2 0.000000338134198
3 -0.000016636894981
4 0.098955022266761
5 0.20112429480596
6 0.18003706255523
7 0.48075196758894
8 0.97712333951147
9 0.87467392747070
10 0.000705297982728
11 0.000511957613184
12 -0.001217255595912
13 -0.000827555644950
14 -0.000740827819923
15 -0.001212972641934
16 -0.011181694179019
17 -0.79104918056453
18 0.005442520375069
19 -0.000191280619816
20 -0.000171162285676
21 0.031468524124240
22 2.22639797377210
23 0.005100118534758
24 0.007789805437253
25 0.012163590010189
26 -0.016699189724758
27 -1.18146138970276
28 -0.002850380663742
29 0.007595022913178
30 -0.000566160743960
31 -0.003588912687003
32 -0.25386836451723
33 -0.000686287612698
34 -0.000954164482138