[Molden Format]
[Molpro variables]
NUMVAR=                    555.0000000000000000
PATCHLEVEL=                    129.0000000000000000
EV=                      0.0367493088676917
KJOULE=                      0.0003808798324129
KJOULE/MOL=                      0.0003808798324129
CM=                      0.0000045563352673
CM-1=                      0.0000045563352673
KCAL=                      0.0015936011178156
KCAL/MOL=                      0.0015936011178156
KELVIN=                      0.0000031668288611
HERTZ=                      0.0000000000000002
HZ=                      0.0000000000000002
TOA=                      0.5291772490000000
TOANG=                      0.5291772490000000
TORAD=                      0.0174532925199433
TOCM=                 219474.6306700000000000
TODEBYE=                      2.5415800000000000
TOEV=                     27.2113961000000000
TOHERTZ=       6579683899900000.0000000000000000
TOHZ=       6579683899900000.0000000000000000
TOK=                 315773.3000000000000000
TOKCAL=                    627.5096000000000000
TOKELVIN=                 315773.3000000000000000
TOKJ=                   2625.5000000000000000
TOKJOULE=                   2625.5000000000000000
ANG=                      1.8897259885789230
ANGSTROM=                      1.8897259885789230
IGNORE_UNDEF=                      2.0000000000000000
STRICTCHECK=                      0.0000000000000000
SEW_ONEEL=                      0.0000000000000000
CPPDONE=FALSE
DKROLL_DONE=                      0.0000000000000000
FOCKDONE=TRUE
GRADONE=FALSE
HESSDONE=FALSE
INTDONE=TRUE
SCFDONE=TRUE
MODUL_LCCSD=TRUE
MODUL_COSMO=TRUE
MODUL_VSCF=FALSE
MODUL_CFIT=TRUE
MODUL_MRCC=FALSE
MODUL_CIDFT=FALSE
MODUL_CC2=FALSE
MRCC_EXEC=
FITC_AO_SAVED=FALSE
FITC_MO_SAVED=FALSE
LSTYP=SEWARD
INTYP=INTS
GEOMTYP=ZMAT
GRADTYP=ALASKA
DIRECT=FALSE
DKROLL=FALSE
SYNCM=                      0.0000000000000000
DFTNAME=                      0.0000000000000000
DFTFUNC=                      0.0000000000000000
BASIS=VDZ
BASISSETS=
ZSIGNX=
ZSIGNY=
ZSIGNZ=
CHARGE=
SCFCHARGE=
MCCHARGE=
CICHARGE=
CCCHARGE=
NELEC=                     42.0000000000000000
SCFNELEC=                     42.0000000000000000
MCNELEC=                     42.0000000000000000
CINELEC=                     42.0000000000000000
CCNELEC=                     42.0000000000000000
SPIN=                      0.0000000000000000
SCFSPIN=                      0.0000000000000000
MCSPIN=                      0.0000000000000000
CISPIN=                      0.0000000000000000
CCSPIN=                      0.0000000000000000
STATE=                      0.0000000000000000
SCFSTATE=                      0.0000000000000000
MCSTATE=                      0.0000000000000000
CISTATE=                      0.0000000000000000
SYMMETRY=                      0.0000000000000000
SCFSYMMETRY=                      0.0000000000000000
MCSYMMETRY=                      0.0000000000000000
CISYMMETRY=                      0.0000000000000000
CCSYMMETRY=                      0.0000000000000000
SCFSYMM=                      0.0000000000000000
MCSYMM=                      0.0000000000000000
CISYMM=                      0.0000000000000000
CCSYMM=                      0.0000000000000000
SCFSYM=                      0.0000000000000000
MCSYM=                      0.0000000000000000
CISYM=                      0.0000000000000000
CCSYM=                      0.0000000000000000
ZSYMEL=                      0.0000000000000000
WEIGHT=                      0.0000000000000000
MCWEIGHT=                      0.0000000000000000
LQUANT=                      0.0000000000000000
MCLQUANT=                      0.0000000000000000
OPTCONV=                      0.0000000000000000
QSDSTEP=                      0.0000000000000000
QSDIRC=                      0.0000000000000000
PROGRAM=CASSCF
CPUSTEP=                     13.0400000000000000
SYSSTEP=                      2.5200000000000000
WALLSTEP=                     18.4700000000000000
!PERT=                     18.4700000000000000
!DFMP2=                     18.4700000000000000
!DFSCF=                      0.0000000000000000
!DFHFENERG=                      0.0000000000000000
!SCSGRD=                      0.0000000000000000
ATCHARGE=                      0.0000000000000000
BASINP=                    610.0000000000000000
CARTESIAN=                    610.0000000000000000
CFIT=                    610.0000000000000000
CFIT_FRED=                    610.0000000000000000
CFIT_FRED_THR=                    610.0000000000000000
CHII2=                    610.0000000000000000
CHIRS=                    610.0000000000000000
COEFF=                    610.0000000000000000
CPU2IDX_CFIT=                    610.0000000000000000
CPU3IDX_CFIT=                    610.0000000000000000
CPUASMBL_CFIT=                    610.0000000000000000
CPUBLAS1=                    610.0000000000000000
CPUBLAS2=                    610.0000000000000000
CPUBLAS3=                    610.0000000000000000
CPUINT_DTRAF=                    610.0000000000000000
CPUSOLVE_CFIT=                    610.0000000000000000
CPUTOT=                     24.6200000000000000
CPUTR1_CFIT=                     24.6200000000000000
CPUTR2_CFIT=                     24.6200000000000000
CPUINV_CFIT=                     24.6200000000000000
CPUFIT_CFIT=                     24.6200000000000000
CPUTRANS_CFIT=                     24.6200000000000000
CPUSCREEN_CFIT=                     24.6200000000000000
CPUTRANS_DTRAF=                     24.6200000000000000
CPUTRA_DTRAF=                     24.6200000000000000
DALTON=                     24.6200000000000000
DARW=                     24.6200000000000000
DECAY=                     24.6200000000000000
DELE_CFIT=                     24.6200000000000000
DELG_CFIT=                     24.6200000000000000
DELTA=                     24.6200000000000000
DFTEXFAC=                     24.6200000000000000
DFTFAC=                     24.6200000000000000
DFTFUN=                     24.6200000000000000
DFTFUNS=                     24.6200000000000000
DMEX=                     24.6200000000000000
DMEY=                     24.6200000000000000
DMEZ=                     24.6200000000000000
DMNX=                     24.6200000000000000
DMNY=                     24.6200000000000000
DMNZ=                     24.6200000000000000
DMSCF=                     24.6200000000000000
DMSCF_Efield=                     24.6200000000000000
DMSCF_I=                     24.6200000000000000
DMSCF_J=                     24.6200000000000000
DMSCF_K=                     24.6200000000000000
DMSCF_N1=                     24.6200000000000000
DMSCF_N2=                     24.6200000000000000
DMSCF_NUC=                     24.6200000000000000
DMSCF_T=                     24.6200000000000000
DMSCF_V=                     24.6200000000000000
DMX=                     -0.0000022400492252
DMY=                      0.0000000000000000
DMZ=                     -0.0000084040211404
DMZCOR=                     -0.0000084040211404
DM_RHO1=                     -0.0000084040211404
DM_RVAL=                     -0.0000084040211404
DUMMYATOMS=                     -0.0000084040211404
FREQUENCIES=                     -0.0000084040211404
EDISP=                     -0.0000084040211404
EEDISP=                     -0.0000084040211404
EINTRA=                     -0.0000084040211404
EIONIC=                     -0.0000084040211404
EMP2=                     -0.0000084040211404
EMP2_SING=                     -0.0000084040211404
EMP2_TRIP=                     -0.0000084040211404
EMP2_SCS=                     -0.0000084040211404
ECSING=                     -0.0000084040211404
ECTRIP=                     -0.0000084040211404
EMP2_R12=                     -0.0000084040211404
EMP2_R12A=                     -0.0000084040211404
EMP2R12_2AD=                     -0.0000084040211404
EMP2R12_2A=                     -0.0000084040211404
EMP2R12_2AP=                     -0.0000084040211404
EMP2R12_2SAD=                     -0.0000084040211404
EMP2R12_2SA=                     -0.0000084040211404
EMP2R12_2SAP=                     -0.0000084040211404
EMP2_R12_DIAG=                     -0.0000084040211404
EMP2_R12_STRONG=                     -0.0000084040211404
EMP2_R12_CLOSE=                     -0.0000084040211404
EMP2_R12_WEAK=                     -0.0000084040211404
EMP2_R12_DIST=                     -0.0000084040211404
EMP2R=                     -0.0000084040211404
EMP3=                     -0.0000084040211404
EMP3R=                     -0.0000084040211404
EMP4=                     -0.0000084040211404
ENERGC=                     -0.0000084040211404
ENERGD=                     -0.0000084040211404
ENERGP=                     -0.0000084040211404
ENERGR=                     -0.0000084040211404
ENERGRR=                     -0.0000084040211404
ENERGS=                     -0.0000084040211404
ENERGT=                     -0.0000084040211404
ENERGU=                     -0.0000084040211404
ENERGW=                     -0.0000084040211404
ENERGY=                   -230.7891635995536000
ENERGY_MP=                   -230.7891635995536000
ENUC=                    202.9432630132525000
EPDIST=                    202.9432630132525000
EPDIST_R12=                    202.9432630132525000
EPSUM=                    202.9432630132525000
EPSUM_R12=                    202.9432630132525000
EPS1=                    -11.2336835541819800
EPS2=                     -0.4744563513872897
EPS3=                     -0.4744563513872897
EPS4=                     -0.4744563513872897
EPS5=                     -0.4744563513872897
EPS6=                     -0.4744563513872897
EPS7=                     -0.4744563513872897
EPS8=                     -0.4744563513872897
EREL=                     -0.4744563513872897
FLOPBLAS1=                     -0.4744563513872897
FLOPBLAS2=                     -0.4744563513872897
FLOPBLAS3=                     -0.4744563513872897
FLOPDGM=                     -0.4744563513872897
FLOPDGV=                     -0.4744563513872897
FLOPMXM=                     -0.4744563513872897
FLOPMXV=                     -0.4744563513872897
FREQSTEP=                     -0.4744563513872897
!RS2GRSTATE=                     -0.4744563513872897
!RS2GRSYM=                     -0.4744563513872897
GRADENERG=                     -0.4744563513872897
GRADEXFAC=                   9999.0000000000000000
GRADMETHOD=TRUE
GRADRECORD=TRUE
GRADX=TRUE
GRADY=TRUE
GRADZ=TRUE
GRADVAR=TRUE
GRID=TRUE
GRID_FREEZE=TRUE
!GRID_FREEZE=                     -1.0000000000000000
GRID_WEIGHT_CUT=                     -1.0000000000000000
GRID_BLOCKSIZE=                     -1.0000000000000000
GRID_SPARSITY=                     -1.0000000000000000
GRID_RMAX=                     -1.0000000000000000
GTOTAL=                     -1.0000000000000000
HDIA=                     -1.0000000000000000
HDIACI=                     -1.0000000000000000
HEAT=                     -1.0000000000000000
HTOTAL=                     -1.0000000000000000
INCR_CORR=                     -1.0000000000000000
INCR_COUNT=                     -1.0000000000000000
INCR_READY=                     -1.0000000000000000
ISCHI=                     -1.0000000000000000
ITERATIONS=                      3.0000000000000000
KFIT=                      3.0000000000000000
LASTNELEC=                      6.0000000000000000
LASTSPIN=                      0.0000000000000000
LASTSYM=                      1.0000000000000000
LL=                      1.0000000000000000
MASSV=                      1.0000000000000000
MIN_ITER=                      1.0000000000000000
MIXANG=                      1.0000000000000000
MIXANGCI=                      1.0000000000000000
MPP_PROG=                      0.0000000000000000
MSENERGY=                      0.0000000000000000
NACME=                      0.0000000000000000
NBAS_CFIT=                      0.0000000000000000
NEWREC=                      0.0000000000000000
NGRID=                      0.0000000000000000
NPROC_MPP=                      1.0000000000000000
NPROC_SMP=                      1.0000000000000000
NUMSTEP=                      0.0000000000000000
OPNUC=                      0.0000000000000000
OPTCONVMX=                      0.0000000000000000
OPTCONVRMS=                      0.0000000000000000
OPTGRAD=                      0.0000000000000000
OPTGRADMX=                      0.0000000000000000
OPTGRADRMS=                      0.0000000000000000
OPTRMSMAX=                      0.0000000000000000
OPTSTEP=                      0.0000000000000000
ORBITAL=                   2140.2000000000000000
PAOINT_CFIT=                   2140.2000000000000000
PENALTY=                   2140.2000000000000000
PH1INT_CFIT=                   2140.2000000000000000
PH1VEC_CFIT=                   2140.2000000000000000
PH2INT_CFIT=                   2140.2000000000000000
PHASE=                   2140.2000000000000000
PI=                      3.1415926535897930
PMOINT_CFIT=                      3.1415926535897930
PMOVEC_CFIT=                      3.1415926535897930
POISSON_ECORR=                      3.1415926535897930
POISSON_ERROR=                      3.1415926535897930
POLXX=                      3.1415926535897930
POLXY=                      3.1415926535897930
POLXZ=                      3.1415926535897930
POLYY=                      3.1415926535897930
POLYZ=                      3.1415926535897930
POLZZ=                      3.1415926535897930
POLYX=                      3.1415926535897930
POLZX=                      3.1415926535897930
POLZY=                      3.1415926535897930
POVINT_CFIT=                      3.1415926535897930
ROOT=                      3.1415926535897930
RPDIST=                      3.1415926535897930
RPMIN=                      3.1415926535897930
RPMAX=                      3.1415926535897930
EPCON=                      3.1415926535897930
EPDIAG=                      3.1415926535897930
!MCACT=                      0.0000000000000000
!MCCLOSED=                     18.0000000000000000
!MCFREEZE=                      0.0000000000000000
!MCMS2=                      0.0000000000000000
!MCNEL=                      6.0000000000000000
!MCNSTSYM=                      1.0000000000000000
!MCSTATE=                      3.0000000000000000
!MCSYM=                      1.0000000000000000
!MCWEIGHT=                      0.3333333333333333
SEIG_MIN=                      0.0003315603584504
SEWPROP=                      1.0000000000000000
SMAT=                      1.0000000000000000
SMATCI=                      1.0000000000000000
STATUS=                      1.0000000000000000
SYSBLAS1=                      1.0000000000000000
SYSBLAS2=                      1.0000000000000000
SYSBLAS3=                      1.0000000000000000
SYSTEM_RC=                      1.0000000000000000
SYSTOT=                      4.3300000000000000
T1DIAG=                      4.3300000000000000
D1DIAG=                      4.3300000000000000
TASK=                      4.3300000000000000
TROV=                      4.3300000000000000
HMAT=                      4.3300000000000000
UMAT=                      4.3300000000000000
UMATCI=                      4.3300000000000000
VERSION=                2006001.0000000000000000
WALLBLAS1=                2006001.0000000000000000
WALLBLAS2=                2006001.0000000000000000
WALLBLAS3=                2006001.0000000000000000
WALLTOT=                     33.2400000000000000
ZPE=                     33.2400000000000000
!DFBASIS_COUL=                     33.2400000000000000
!DFBASIS_EXCH=                     33.2400000000000000
!DFBASIS_MP2=                     33.2400000000000000
!DFBASIS_CCSD=                     33.2400000000000000
!RIBASIS_MP2=                     33.2400000000000000
MODULE_ALMLOF=                     33.2400000000000000
MODULE_BENCH=                     33.2400000000000000
MODULE_CFIT=                     33.2400000000000000
MODULE_DEVELOP=                     33.2400000000000000
MODULE_DIRECT=                     33.2400000000000000
MODULE_DMSCF=                     33.2400000000000000
MODULE_DOC=                     33.2400000000000000
MODULE_DOCDEV=                     33.2400000000000000
MODULE_LCCSD=                     33.2400000000000000
MODULE_LOCAL=                     33.2400000000000000
MODULE_LX=                     33.2400000000000000
MODULE_MPP=                     33.2400000000000000
MODULE_COSMO=                     33.2400000000000000
MODULE_DFIT=                     33.2400000000000000
MODULE_EXPLICIT=                     33.2400000000000000
MODULE_VSCF=                     33.2400000000000000
MODULE_MRCC=                     33.2400000000000000
MODULE_CIDFT=                     33.2400000000000000
MODULE_CC2=                     33.2400000000000000
MODULE_SLATER=                     33.2400000000000000
MODULE_GCC=                     33.2400000000000000
DATE= 11-Jun-12
LASTORB=MCSCF
MACHINE=Linux-2.6.9-22.ELsmp/compute-1-21.local(x86_64) 64 bit version (pgf6.2-3/acml)
METHODC=
METHODT=
OUTPUT=/home/smp217/molpro/casscf/benzene.out
PGROUP=Cs
SEMI=
TIME=15:40:53
VDIAG=
UDIAG=
!AOINTADDSC=
TRANSFORM_FORCE=
SOLVE_ITER=
VSCF_FREQ=
VCI_FREQ=
!SURFREC=                      0.0000000000000000
!VSCFREC=                      0.0000000000000000
!VCIREC=                      0.0000000000000000
!SCFORB=                  21002.0000000000000000
!CIOCC=                  21002.0000000000000000
!CICORE=                  21002.0000000000000000
!CICLOS=                  21002.0000000000000000
!UNO_OCC=                  21002.0000000000000000
!UNO_CLOSED=                  21002.0000000000000000
!CINSTSYM=                  21002.0000000000000000
!CIISTSYM=                  21002.0000000000000000
!CIISTMS2=                  21002.0000000000000000
!CIISTNEL=                  21002.0000000000000000
!CIMS2=                  21002.0000000000000000
!NEWMOL=                     -1.0000000000000000
!NEWSYM=                     -1.0000000000000000
!NEWORIENT=                     -1.0000000000000000
SLFILES=slscratch
NGSSTO=                      9.0000000000000000
SIN=SIN
COS=COS
TAN=TAN
ACOS=ACOS
ASIN=ASIN
ATAN=ATAN
COSH=COSH
SINH=SINH
TANH=TANH
ABS=ABS
MOD=MOD
ERF=ERF
REFC=REFC
ERFC=ERFC
HYPOT=HYPOT
J0=J0
J1=J1
JN=JN
GAMMA=GAMMA
LGAMMA=LGAMMA
Y0=Y0
Y1=Y1
YN=YN
EXP=EXP
LOG=LOG
LOG10=LOG10
SQRT=SQRT
INT=INT
NINT=NINT
MAX=MAX
MIN=MIN
COSMO=                      0.0000000000000000
COSMOIT=                      0.0000000000000000
COSMOES=                      0.0000000000000000
COSMOEDS=                      0.0000000000000000
COSMOEC=                      0.0000000000000000
COSMOEDCORR=                      0.0000000000000000
FEPSI=                      1.0000000000000000
SL_NSYM=                      2.0000000000000000
SL_System_BitSwi=                     32.0000000000000000
SL_Unique_atoms=                     12.0000000000000000
SL_Last_energy=                     12.0000000000000000
SL_GRAD=                      0.0000000000000000
SL_MAXUPD_Hessia=                      5.0000000000000000
SL_N_PRINT_CODES=                      5.0000000000000000
SL_PRINT_CODES=                      0.0000000000000000
SL_BasType=                      0.0000000000000000
SL_Energy_Pred=                      0.0000000000000000
SL_New_Coords=                      0.0000000000000000
SL_Total_Nuclear=                      0.0000000000000000
SL_Highest_Mltpl=                      1.0000000000000000
SCFOCC=                      1.0000000000000000
SCFCLOSED=                      1.0000000000000000
SCFCORE=                      1.0000000000000000
MCOCC=                      1.0000000000000000
MCCLOSED=                      1.0000000000000000
MCFROZEN=                      1.0000000000000000
MCCORE=                      1.0000000000000000
CIOCC=                      1.0000000000000000
CICLOSED=                      1.0000000000000000
CICORE=                      1.0000000000000000
CCOCC=                      1.0000000000000000
CCCLOSED=                      1.0000000000000000
CCCORE=                      1.0000000000000000
SRXC=                      1.0000000000000000
SRC=                      1.0000000000000000
SRX=                      1.0000000000000000
SRH=                      1.0000000000000000
E_EXCHANGE=                      1.0000000000000000
!LATTICE=                     -1.0000000000000000
!NEWLATTICE=                      0.0000000000000000
!LATGRAD_VAR=FALSE
!SEW_LATTICE=                      1.0000000000000000
LATGRADX=                      1.0000000000000000
LATGRADY=                      1.0000000000000000
LATGRADZ=                      1.0000000000000000
!SCALTABINIT=                      1.0000000000000000
!LOCAL=                      0.0000000000000000
!SAVEOCC=                      0.0000000000000000
!SAVEDOM=                     -1.0000000000000000
!RESTDOM=                     -1.0000000000000000
!SAVEDOM_HF=                     -1.0000000000000000
!RESTDOM_HF=                     -1.0000000000000000
!HESSREC=                      0.0000000000000000
!FREQREC=                      0.0000000000000000
!NMODREC=                      0.0000000000000000
!GTASKS=                      0.0000000000000000
!HTASKS=                      0.0000000000000000
!THRCHG=                      0.1000000000000000
!DEBUG=                     -1.0000000000000000
!CFIT_CPHF=                      0.0000000000000000
!RDOMAUX_CPHF=                      3.0000000000000000
!THRAO_CPHF=                      0.0000000100000000
!THRMO_CPHF=                      0.0000000100000000
!THROV_CPHF=                      0.0000000001000000
!THRSW_CPHF=                      0.0000000001000000
!THRPROD_CPHF=                      0.0000000100000000
!THRAOPR_CPHF=                      0.0000000000010000
!CFIT_SCFGRD=                      0.0000000000000000
!RDOMAUX_SCFGRD=                      5.0000000000000000
!THRAO_SCFGRD=                      0.0000000100000000
!THRMO_SCFGRD=                      0.0000000100000000
!THROV_SCFGRD=                      0.0000000001000000
!THRSW_SCFGRD=                      0.0000000001000000
!THRPROD_SCFGRD=                      0.0000000100000000
!THRAOPR_SCFGRD=                      0.0000000000010000
!LOCFIT_SCF=                      0.0000000000000000
!LOCFIT_MP2=                     -1.0000000000000000
RIDOM=                      0.0000000000000000
FCI_METHOD=                      0.0000000000000000
!CC2_METHOD=                      0.0000000000000000
BASIS2006=FALSE
GX1=                      0.0000000000000000
GY1=                      0.0000000000000000
GZ1=                      2.6411300000000000
GX2=                      2.2877100000000000
GY2=                      0.0000000000000000
GZ2=                      1.3206800000000000
GX3=                      2.2877000000000000
GY3=                      0.0000000000000000
GZ3=                     -1.3207200000000000
GX4=                      0.0000000000000000
GY4=                      0.0000000000000000
GZ4=                     -2.6411500000000000
GX5=                     -2.2877000000000000
GY5=                      0.0000000000000000
GZ5=                     -1.3207200000000000
GX6=                     -2.2877000000000000
GY6=                      0.0000000000000000
GZ6=                      1.3206800000000000
GX7=                      4.0722200000000000
GY7=                      0.0000000000000000
GZ7=                      2.3516500000000000
GX8=                      4.0722200000000000
GY8=                      0.0000000000000000
GZ8=                     -2.3516400000000000
GX9=                      0.0000000000000000
GY9=                      0.0000000000000000
GZ9=                     -4.7019200000000000
GX10=                     -4.0722000000000000
GY10=                      0.0000000000000000
GZ10=                     -2.3516400000000000
GX11=                     -4.0722000000000000
GY11=                      0.0000000000000000
GZ11=                      2.3516500000000000
GX12=                      0.0000000000000000
GY12=                      0.0000000000000000
GZ12=                      4.7019900000000000
TRDMX=                     -0.0002160906172325
TRDMY=                      0.0000000000000000
TRDMZ=                      0.0000024020031205
[Atoms] Angs
C     1    6         0.0000000000        0.0000000000        1.3976259077
C     2    6         1.2106040843        0.0000000000        0.6988738092
C     3    6         1.2105987925        0.0000000000       -0.6988949763
C     4    6         0.0000000000        0.0000000000       -1.3976364912
C     5    6        -1.2105987925        0.0000000000       -0.6988949763
C     6    6        -1.2105987925        0.0000000000        0.6988738092
H     7    1         2.1549261769        0.0000000000        1.2444396776
H     8    1         2.1549261769        0.0000000000       -1.2444343858
H     9    1         0.0000000000        0.0000000000       -2.4881490906
H    10    1        -2.1549155934        0.0000000000       -1.2444343858
H    11    1        -2.1549155934        0.0000000000        1.2444396776
H    12    1         0.0000000000        0.0000000000        2.4881861330
[GTO]
  1 0
 s    9 1.00
  0.6665000000D+04  0.6920001793D-03
  0.1000000000D+04  0.5329001381D-02
  0.2280000000D+03  0.2707700701D-01
  0.6471000000D+02  0.1017180264D+00
  0.2106000000D+02  0.2747400712D+00
  0.7495000000D+01  0.4485641162D+00
  0.2797000000D+01  0.2850740738D+00
  0.5215000000D+00  0.1520400394D-01
  0.1596000000D+00 -0.3191000827D-02
 s    9 1.00
  0.6665000000D+04 -0.1460000642D-03
  0.1000000000D+04 -0.1154000508D-02
  0.2280000000D+03 -0.5725002519D-02
  0.6471000000D+02 -0.2331201026D-01
  0.2106000000D+02 -0.6395502813D-01
  0.7495000000D+01 -0.1499810660D+00
  0.2797000000D+01 -0.1272620560D+00
  0.5215000000D+00  0.5445292395D+00
  0.1596000000D+00  0.5804962554D+00
 s    9 1.00
  0.6665000000D+04  0.0000000000D+00
  0.1000000000D+04  0.0000000000D+00
  0.2280000000D+03  0.0000000000D+00
  0.6471000000D+02  0.0000000000D+00
  0.2106000000D+02  0.0000000000D+00
  0.7495000000D+01  0.0000000000D+00
  0.2797000000D+01  0.0000000000D+00
  0.5215000000D+00  0.0000000000D+00
  0.1596000000D+00  0.1000000000D+01
 p    4 1.00
  0.9439000000D+01  0.3810902127D-01
  0.2002000000D+01  0.2094801169D+00
  0.5456000000D+00  0.5085572839D+00
  0.1517000000D+00  0.4688422617D+00
 p    4 1.00
  0.9439000000D+01  0.0000000000D+00
  0.2002000000D+01  0.0000000000D+00
  0.5456000000D+00  0.0000000000D+00
  0.1517000000D+00  0.1000000000D+01
 d    1 1.00
  0.5500000000D+00  0.1000000000D+01
  
  2 0
 s    9 1.00
  0.6665000000D+04  0.6920001793D-03
  0.1000000000D+04  0.5329001381D-02
  0.2280000000D+03  0.2707700701D-01
  0.6471000000D+02  0.1017180264D+00
  0.2106000000D+02  0.2747400712D+00
  0.7495000000D+01  0.4485641162D+00
  0.2797000000D+01  0.2850740738D+00
  0.5215000000D+00  0.1520400394D-01
  0.1596000000D+00 -0.3191000827D-02
 s    9 1.00
  0.6665000000D+04 -0.1460000642D-03
  0.1000000000D+04 -0.1154000508D-02
  0.2280000000D+03 -0.5725002519D-02
  0.6471000000D+02 -0.2331201026D-01
  0.2106000000D+02 -0.6395502813D-01
  0.7495000000D+01 -0.1499810660D+00
  0.2797000000D+01 -0.1272620560D+00
  0.5215000000D+00  0.5445292395D+00
  0.1596000000D+00  0.5804962554D+00
 s    9 1.00
  0.6665000000D+04  0.0000000000D+00
  0.1000000000D+04  0.0000000000D+00
  0.2280000000D+03  0.0000000000D+00
  0.6471000000D+02  0.0000000000D+00
  0.2106000000D+02  0.0000000000D+00
  0.7495000000D+01  0.0000000000D+00
  0.2797000000D+01  0.0000000000D+00
  0.5215000000D+00  0.0000000000D+00
  0.1596000000D+00  0.1000000000D+01
 p    4 1.00
  0.9439000000D+01  0.3810902127D-01
  0.2002000000D+01  0.2094801169D+00
  0.5456000000D+00  0.5085572839D+00
  0.1517000000D+00  0.4688422617D+00
 p    4 1.00
  0.9439000000D+01  0.0000000000D+00
  0.2002000000D+01  0.0000000000D+00
  0.5456000000D+00  0.0000000000D+00
  0.1517000000D+00  0.1000000000D+01
 d    1 1.00
  0.5500000000D+00  0.1000000000D+01
  
  3 0
 s    9 1.00
  0.6665000000D+04  0.6920001793D-03
  0.1000000000D+04  0.5329001381D-02
  0.2280000000D+03  0.2707700701D-01
  0.6471000000D+02  0.1017180264D+00
  0.2106000000D+02  0.2747400712D+00
  0.7495000000D+01  0.4485641162D+00
  0.2797000000D+01  0.2850740738D+00
  0.5215000000D+00  0.1520400394D-01
  0.1596000000D+00 -0.3191000827D-02
 s    9 1.00
  0.6665000000D+04 -0.1460000642D-03
  0.1000000000D+04 -0.1154000508D-02
  0.2280000000D+03 -0.5725002519D-02
  0.6471000000D+02 -0.2331201026D-01
  0.2106000000D+02 -0.6395502813D-01
  0.7495000000D+01 -0.1499810660D+00
  0.2797000000D+01 -0.1272620560D+00
  0.5215000000D+00  0.5445292395D+00
  0.1596000000D+00  0.5804962554D+00
 s    9 1.00
  0.6665000000D+04  0.0000000000D+00
  0.1000000000D+04  0.0000000000D+00
  0.2280000000D+03  0.0000000000D+00
  0.6471000000D+02  0.0000000000D+00
  0.2106000000D+02  0.0000000000D+00
  0.7495000000D+01  0.0000000000D+00
  0.2797000000D+01  0.0000000000D+00
  0.5215000000D+00  0.0000000000D+00
  0.1596000000D+00  0.1000000000D+01
 p    4 1.00
  0.9439000000D+01  0.3810902127D-01
  0.2002000000D+01  0.2094801169D+00
  0.5456000000D+00  0.5085572839D+00
  0.1517000000D+00  0.4688422617D+00
 p    4 1.00
  0.9439000000D+01  0.0000000000D+00
  0.2002000000D+01  0.0000000000D+00
  0.5456000000D+00  0.0000000000D+00
  0.1517000000D+00  0.1000000000D+01
 d    1 1.00
  0.5500000000D+00  0.1000000000D+01
  
  4 0
 s    9 1.00
  0.6665000000D+04  0.6920001793D-03
  0.1000000000D+04  0.5329001381D-02
  0.2280000000D+03  0.2707700701D-01
  0.6471000000D+02  0.1017180264D+00
  0.2106000000D+02  0.2747400712D+00
  0.7495000000D+01  0.4485641162D+00
  0.2797000000D+01  0.2850740738D+00
  0.5215000000D+00  0.1520400394D-01
  0.1596000000D+00 -0.3191000827D-02
 s    9 1.00
  0.6665000000D+04 -0.1460000642D-03
  0.1000000000D+04 -0.1154000508D-02
  0.2280000000D+03 -0.5725002519D-02
  0.6471000000D+02 -0.2331201026D-01
  0.2106000000D+02 -0.6395502813D-01
  0.7495000000D+01 -0.1499810660D+00
  0.2797000000D+01 -0.1272620560D+00